/*--------------------------------*- C++ -*----------------------------------*\
  =========                 |
  \\      /  F ield         | OpenFOAM: The Open Source CFD Toolbox
   \\    /   O peration     | Website:  https://openfoam.org
    \\  /    A nd           | Version:  13
     \\/     M anipulation  |
\*---------------------------------------------------------------------------*/
FoamFile
{
    format      ascii;
    class       volScalarField;
    location    "0.4";
    object      p;
}
// * * * * * * * * * * * * * * * * * * * * * * * * * * * * * * * * * * * * * //

dimensions      [1 -1 -2 0 0 0 0];

internalField   nonuniform List<scalar> 
100
(
7739.99
7740.02
7740.08
7740.17
7740.29
7740.43
7740.6
7740.79
7741
7741.23
7741.48
7741.75
7742.03
7742.33
7742.65
7742.99
7743.33
7743.7
7744.07
7744.45
7744.84
7745.24
7745.64
7746.05
7746.46
7746.87
7747.28
7747.69
7748.1
7748.5
7748.9
7749.29
7749.67
7750.04
7750.41
7750.76
7751.1
7751.43
7751.75
7752.06
7752.36
7752.65
7752.92
7753.18
7753.43
7753.67
7753.9
7754.11
7754.32
7754.52
7754.7
7754.88
7755.05
7755.21
7755.37
7755.52
7755.66
7755.79
7755.92
7756.04
7756.16
7756.27
7756.38
7756.49
7756.6
7756.7
7756.8
7756.9
7757
7757.09
7757.19
7757.29
7757.38
7757.48
7757.57
7757.67
7757.76
7757.86
7757.95
7758.05
7758.15
7758.24
7758.34
7758.44
7758.54
7758.64
7758.74
7758.84
7758.94
7759.05
7759.15
7759.25
7759.36
7759.46
7759.57
7759.67
7759.78
7759.88
7759.99
7760.09
)
;

boundaryField
{
    sides
    {
        type            zeroGradient;
    }
    walls
    {
        type            empty;
    }
}


// ************************************************************************* //
