/*--------------------------------*- C++ -*----------------------------------*\
  =========                 |
  \\      /  F ield         | OpenFOAM: The Open Source CFD Toolbox
   \\    /   O peration     | Website:  https://openfoam.org
    \\  /    A nd           | Version:  13
     \\/     M anipulation  |
\*---------------------------------------------------------------------------*/
FoamFile
{
    format      ascii;
    class       volScalarField;
    location    "0.4";
    object      p;
}
// * * * * * * * * * * * * * * * * * * * * * * * * * * * * * * * * * * * * * //

dimensions      [1 -1 -2 0 0 0 0];

internalField   nonuniform List<scalar> 
100
(
875.39
875.305
875.207
875.092
874.957
874.805
874.632
874.441
874.23
873.999
873.749
873.481
873.194
872.89
872.571
872.238
871.893
871.539
871.178
870.813
870.446
870.08
869.718
869.362
869.014
868.677
868.352
868.04
867.743
867.462
867.198
866.95
866.72
866.506
866.309
866.128
865.963
865.814
865.679
865.559
865.453
865.36
865.279
865.21
865.152
865.104
865.067
865.039
865.021
865.011
865.011
865.021
865.039
865.067
865.104
865.152
865.21
865.279
865.36
865.453
865.56
865.68
865.815
865.964
866.129
866.31
866.507
866.721
866.951
867.199
867.464
867.745
868.042
868.353
868.679
869.016
869.364
869.72
870.083
870.449
870.816
871.181
871.542
871.896
872.241
872.574
872.893
873.196
873.483
873.752
874.002
874.233
874.444
874.635
874.807
874.96
875.094
875.21
875.307
875.392
)
;

boundaryField
{
    sides
    {
        type            zeroGradient;
    }
    walls
    {
        type            empty;
    }
}


// ************************************************************************* //
