/*--------------------------------*- C++ -*----------------------------------*\
  =========                 |
  \\      /  F ield         | OpenFOAM: The Open Source CFD Toolbox
   \\    /   O peration     | Website:  https://openfoam.org
    \\  /    A nd           | Version:  13
     \\/     M anipulation  |
\*---------------------------------------------------------------------------*/
FoamFile
{
    format      ascii;
    class       surfaceScalarField;
    location    "0.4";
    object      phi;
}
// * * * * * * * * * * * * * * * * * * * * * * * * * * * * * * * * * * * * * //

dimensions      [1 0 -1 0 0 0 0];

internalField   nonuniform List<scalar> 
99
(
32.8716
32.8706
32.8695
32.8683
32.8669
32.8654
32.8638
32.8622
32.8604
32.8586
32.8568
32.8549
32.853
32.8511
32.8492
32.8473
32.8455
32.8437
32.842
32.8404
32.8389
32.8375
32.8362
32.8351
32.8342
32.8334
32.8329
32.8326
32.8326
32.8328
32.8334
32.8343
32.8355
32.8371
32.8391
32.8415
32.8442
32.8473
32.8506
32.8542
32.858
32.862
32.8662
32.8705
32.8749
32.8796
32.8843
32.8893
32.8944
32.8996
32.905
32.9105
32.9162
32.9221
32.9281
32.9342
32.9406
32.947
32.9536
32.9603
32.9671
32.9741
32.9812
32.9884
32.9956
33.003
33.0105
33.0182
33.0259
33.0338
33.0418
33.05
33.0587
33.0675
33.0765
33.0857
33.0951
33.1048
33.1146
33.1245
33.1345
33.1443
33.1538
33.163
33.1722
33.1813
33.1902
33.1987
33.2068
33.2148
33.2225
33.2302
33.2377
33.2451
33.2524
33.2596
33.2668
33.2738
33.2809
)
;

boundaryField
{
    sides
    {
        type            calculated;
        value           nonuniform List<scalar> 2(-32.8725 33.288);
    }
    walls
    {
        type            empty;
    }
}


// ************************************************************************* //
