/*--------------------------------*- C++ -*----------------------------------*\
  =========                 |
  \\      /  F ield         | OpenFOAM: The Open Source CFD Toolbox
   \\    /   O peration     | Website:  https://openfoam.org
    \\  /    A nd           | Version:  13
     \\/     M anipulation  |
\*---------------------------------------------------------------------------*/
FoamFile
{
    format      ascii;
    class       volScalarField;
    location    "0.4";
    object      T;
}
// * * * * * * * * * * * * * * * * * * * * * * * * * * * * * * * * * * * * * //

dimensions      [0 0 0 1 0 0 0];

internalField   nonuniform List<scalar> 
100
(
163.094
163.094
163.094
163.095
163.096
163.098
163.1
163.102
163.104
163.107
163.11
163.113
163.116
163.119
163.123
163.127
163.13
163.134
163.138
163.142
163.146
163.15
163.154
163.158
163.163
163.167
163.171
163.174
163.178
163.182
163.185
163.187
163.19
163.191
163.193
163.193
163.194
163.194
163.194
163.194
163.194
163.194
163.195
163.197
163.199
163.201
163.204
163.207
163.211
163.215
163.219
163.223
163.228
163.232
163.237
163.242
163.247
163.252
163.257
163.262
163.267
163.272
163.277
163.282
163.287
163.291
163.296
163.3
163.304
163.308
163.311
163.315
163.316
163.316
163.316
163.315
163.313
163.31
163.306
163.302
163.298
163.294
163.291
163.29
163.29
163.29
163.291
163.294
163.299
163.305
163.312
163.319
163.328
163.337
163.346
163.357
163.367
163.379
163.389
163.408
)
;

boundaryField
{
    sides
    {
        type            zeroGradient;
    }
    walls
    {
        type            empty;
    }
}


// ************************************************************************* //
