/*--------------------------------*- C++ -*----------------------------------*\
  =========                 |
  \\      /  F ield         | OpenFOAM: The Open Source CFD Toolbox
   \\    /   O peration     | Website:  https://openfoam.org
    \\  /    A nd           | Version:  13
     \\/     M anipulation  |
\*---------------------------------------------------------------------------*/
FoamFile
{
    format      ascii;
    class       volScalarField;
    location    "0.4";
    object      T;
}
// * * * * * * * * * * * * * * * * * * * * * * * * * * * * * * * * * * * * * //

dimensions      [0 0 0 1 0 0 0];

internalField   nonuniform List<scalar> 
100
(
64.3362
64.3381
64.3422
64.3447
64.3469
64.3488
64.3503
64.3514
64.3522
64.3526
64.3527
64.3524
64.3518
64.3509
64.3497
64.3483
64.3466
64.3449
64.3431
64.3413
64.3395
64.3378
64.3363
64.335
64.334
64.3334
64.3331
64.3332
64.3338
64.3348
64.3363
64.3383
64.3408
64.3437
64.3471
64.351
64.3553
64.36
64.3651
64.3705
64.3763
64.3823
64.3885
64.3948
64.4013
64.4077
64.4137
64.419
64.423
64.4251
64.4251
64.423
64.419
64.4136
64.4076
64.4012
64.3947
64.3884
64.3822
64.3762
64.3704
64.365
64.3599
64.3552
64.3509
64.3471
64.3436
64.3407
64.3382
64.3362
64.3347
64.3337
64.3332
64.333
64.3333
64.334
64.335
64.3362
64.3377
64.3394
64.3412
64.343
64.3448
64.3466
64.3482
64.3496
64.3508
64.3517
64.3523
64.3526
64.3526
64.3522
64.3514
64.3502
64.3487
64.3469
64.3446
64.3422
64.338
64.3361
)
;

boundaryField
{
    sides
    {
        type            zeroGradient;
    }
    walls
    {
        type            empty;
    }
}


// ************************************************************************* //
