/*--------------------------------*- C++ -*----------------------------------*\
  =========                 |
  \\      /  F ield         | OpenFOAM: The Open Source CFD Toolbox
   \\    /   O peration     | Website:  https://openfoam.org
    \\  /    A nd           | Version:  13
     \\/     M anipulation  |
\*---------------------------------------------------------------------------*/
FoamFile
{
    format      ascii;
    class       volVectorField;
    location    "0.4";
    object      U;
}
// * * * * * * * * * * * * * * * * * * * * * * * * * * * * * * * * * * * * * //

dimensions      [0 1 -1 0 0 0 0];

internalField   nonuniform List<vector> 
100
(
(49.8201 0 0)
(49.8185 0 0)
(49.8167 0 0)
(49.8152 0 0)
(49.8134 0 0)
(49.8108 0 0)
(49.8075 0 0)
(49.8041 0 0)
(49.8007 0 0)
(49.7974 0 0)
(49.7939 0 0)
(49.7903 0 0)
(49.7866 0 0)
(49.7827 0 0)
(49.7788 0 0)
(49.7749 0 0)
(49.771 0 0)
(49.767 0 0)
(49.7632 0 0)
(49.7594 0 0)
(49.7557 0 0)
(49.7521 0 0)
(49.7487 0 0)
(49.7455 0 0)
(49.7425 0 0)
(49.7398 0 0)
(49.7373 0 0)
(49.7352 0 0)
(49.7334 0 0)
(49.732 0 0)
(49.7309 0 0)
(49.7303 0 0)
(49.7301 0 0)
(49.7304 0 0)
(49.7311 0 0)
(49.7324 0 0)
(49.7341 0 0)
(49.7364 0 0)
(49.7391 0 0)
(49.7423 0 0)
(49.7461 0 0)
(49.7503 0 0)
(49.755 0 0)
(49.7602 0 0)
(49.7658 0 0)
(49.7719 0 0)
(49.7784 0 0)
(49.7853 0 0)
(49.7927 0 0)
(49.8004 0 0)
(49.8085 0 0)
(49.817 0 0)
(49.8258 0 0)
(49.835 0 0)
(49.8445 0 0)
(49.8543 0 0)
(49.8643 0 0)
(49.8746 0 0)
(49.8852 0 0)
(49.896 0 0)
(49.9071 0 0)
(49.9183 0 0)
(49.9297 0 0)
(49.9413 0 0)
(49.9531 0 0)
(49.965 0 0)
(49.977 0 0)
(49.9892 0 0)
(50.0015 0 0)
(50.0139 0 0)
(50.0264 0 0)
(50.0389 0 0)
(50.0516 0 0)
(50.0643 0 0)
(50.077 0 0)
(50.0898 0 0)
(50.1027 0 0)
(50.1157 0 0)
(50.1287 0 0)
(50.1418 0 0)
(50.1549 0 0)
(50.1681 0 0)
(50.1813 0 0)
(50.1944 0 0)
(50.2077 0 0)
(50.221 0 0)
(50.2344 0 0)
(50.2477 0 0)
(50.261 0 0)
(50.2744 0 0)
(50.2877 0 0)
(50.3011 0 0)
(50.3145 0 0)
(50.3279 0 0)
(50.3414 0 0)
(50.3548 0 0)
(50.3683 0 0)
(50.3817 0 0)
(50.3955 0 0)
(50.4158 0 0)
)
;

boundaryField
{
    sides
    {
        type            zeroGradient;
    }
    walls
    {
        type            empty;
    }
}


// ************************************************************************* //
