/*--------------------------------*- C++ -*----------------------------------*\
  =========                 |
  \\      /  F ield         | OpenFOAM: The Open Source CFD Toolbox
   \\    /   O peration     | Website:  https://openfoam.org
    \\  /    A nd           | Version:  13
     \\/     M anipulation  |
\*---------------------------------------------------------------------------*/
FoamFile
{
    format      ascii;
    class       volVectorField;
    location    "0.4";
    object      U;
}
// * * * * * * * * * * * * * * * * * * * * * * * * * * * * * * * * * * * * * //

dimensions      [0 1 -1 0 0 0 0];

internalField   nonuniform List<vector> 
100
(
(-6.14459 0 0)
(-5.95062 0 0)
(-5.83152 0 0)
(-5.70773 0 0)
(-5.58497 0 0)
(-5.46334 0 0)
(-5.34301 0 0)
(-5.22413 0 0)
(-5.10681 0 0)
(-4.99114 0 0)
(-4.87717 0 0)
(-4.76488 0 0)
(-4.65426 0 0)
(-4.5452 0 0)
(-4.43758 0 0)
(-4.33121 0 0)
(-4.22586 0 0)
(-4.12128 0 0)
(-4.01717 0 0)
(-3.91323 0 0)
(-3.80914 0 0)
(-3.70458 0 0)
(-3.59924 0 0)
(-3.49282 0 0)
(-3.38506 0 0)
(-3.27569 0 0)
(-3.1645 0 0)
(-3.05136 0 0)
(-2.9361 0 0)
(-2.81862 0 0)
(-2.69888 0 0)
(-2.57683 0 0)
(-2.4525 0 0)
(-2.32591 0 0)
(-2.19712 0 0)
(-2.0662 0 0)
(-1.93324 0 0)
(-1.79834 0 0)
(-1.66161 0 0)
(-1.52317 0 0)
(-1.38315 0 0)
(-1.24169 0 0)
(-1.0989 0 0)
(-0.954811 0 0)
(-0.809966 0 0)
(-0.66541 0 0)
(-0.511344 0 0)
(-0.379868 0 0)
(-0.207158 0 0)
(-0.092216 0 0)
(0.0918932 0 0)
(0.206819 0 0)
(0.379557 0 0)
(0.510995 0 0)
(0.665088 0 0)
(0.809621 0 0)
(0.954466 0 0)
(1.09855 0 0)
(1.24134 0 0)
(1.38279 0 0)
(1.5228 0 0)
(1.66123 0 0)
(1.79795 0 0)
(1.93284 0 0)
(2.06579 0 0)
(2.1967 0 0)
(2.32548 0 0)
(2.45205 0 0)
(2.57637 0 0)
(2.6984 0 0)
(2.81813 0 0)
(2.93559 0 0)
(3.05083 0 0)
(3.16397 0 0)
(3.27513 0 0)
(3.38449 0 0)
(3.49224 0 0)
(3.59864 0 0)
(3.70397 0 0)
(3.80852 0 0)
(3.9126 0 0)
(4.01653 0 0)
(4.12063 0 0)
(4.22521 0 0)
(4.33055 0 0)
(4.43692 0 0)
(4.54454 0 0)
(4.65359 0 0)
(4.76422 0 0)
(4.87651 0 0)
(4.99049 0 0)
(5.10616 0 0)
(5.22348 0 0)
(5.34237 0 0)
(5.46271 0 0)
(5.58434 0 0)
(5.7071 0 0)
(5.8309 0 0)
(5.95001 0 0)
(6.14398 0 0)
)
;

boundaryField
{
    sides
    {
        type            zeroGradient;
    }
    walls
    {
        type            empty;
    }
}


// ************************************************************************* //
