/*--------------------------------*- C++ -*----------------------------------*\
  =========                 |
  \\      /  F ield         | OpenFOAM: The Open Source CFD Toolbox
   \\    /   O peration     | Website:  https://openfoam.org
    \\  /    A nd           | Version:  13
     \\/     M anipulation  |
\*---------------------------------------------------------------------------*/
FoamFile
{
    format      ascii;
    class       volScalarField;
    location    "0.2";
    object      p;
}
// * * * * * * * * * * * * * * * * * * * * * * * * * * * * * * * * * * * * * //

dimensions      [1 -1 -2 0 0 0 0];

internalField   nonuniform List<scalar> 
100
(
1402.96
1403.11
1403.34
1403.64
1404
1404.41
1404.85
1405.31
1405.78
1406.24
1406.69
1407.13
1407.55
1407.95
1408.33
1408.7
1409.04
1409.37
1409.68
1409.97
1410.25
1410.51
1410.76
1410.99
1411.21
1411.42
1411.61
1411.79
1411.97
1412.13
1412.28
1412.42
1412.56
1412.68
1412.8
1412.91
1413.01
1413.11
1413.19
1413.27
1413.34
1413.41
1413.46
1413.51
1413.55
1413.59
1413.61
1413.63
1413.65
1413.64
1413.64
1413.65
1413.63
1413.61
1413.59
1413.55
1413.51
1413.46
1413.41
1413.34
1413.27
1413.19
1413.11
1413.01
1412.91
1412.8
1412.68
1412.56
1412.42
1412.28
1412.13
1411.97
1411.79
1411.61
1411.42
1411.21
1410.99
1410.76
1410.51
1410.24
1409.97
1409.67
1409.36
1409.04
1408.69
1408.33
1407.95
1407.54
1407.12
1406.69
1406.23
1405.77
1405.3
1404.84
1404.4
1403.99
1403.63
1403.33
1403.09
1402.94
)
;

boundaryField
{
    sides
    {
        type            zeroGradient;
    }
    walls
    {
        type            empty;
    }
}


// ************************************************************************* //
