/*--------------------------------*- C++ -*----------------------------------*\
  =========                 |
  \\      /  F ield         | OpenFOAM: The Open Source CFD Toolbox
   \\    /   O peration     | Website:  https://openfoam.org
    \\  /    A nd           | Version:  13
     \\/     M anipulation  |
\*---------------------------------------------------------------------------*/
FoamFile
{
    format      ascii;
    class       volScalarField;
    location    "0.2";
    object      p;
}
// * * * * * * * * * * * * * * * * * * * * * * * * * * * * * * * * * * * * * //

dimensions      [1 -1 -2 0 0 0 0];

internalField   nonuniform List<scalar> 
100
(
8322.56
8321.78
8319.97
8317.83
8315.91
8314.29
8312.77
8311.25
8309.68
8308.09
8306.51
8304.93
8303.37
8301.83
8300.29
8298.75
8297.23
8295.72
8294.22
8292.74
8291.27
8289.81
8288.37
8286.95
8285.54
8284.16
8282.79
8281.45
8280.14
8278.85
8277.58
8276.35
8275.14
8273.97
8272.83
8271.73
8270.67
8269.65
8268.67
8267.74
8266.85
8266.02
8265.23
8264.51
8263.84
8263.23
8262.68
8262.2
8261.79
8261.45
8261.18
8260.99
8260.88
8260.85
8260.93
8261.08
8261.3
8261.62
8262.04
8262.56
8263.16
8263.85
8264.63
8265.49
8266.43
8267.45
8268.55
8269.72
8270.94
8272.21
8273.52
8274.88
8276.28
8277.7
8279.14
8280.59
8282.04
8283.49
8284.93
8286.36
8287.76
8289.14
8290.48
8291.79
8293.05
8294.26
8295.41
8296.5
8297.51
8298.44
8299.27
8300
8300.6
8301.06
8301.36
8301.49
8301.47
8301.25
8300.8
8300.07
)
;

boundaryField
{
    sides
    {
        type            zeroGradient;
    }
    walls
    {
        type            empty;
    }
}


// ************************************************************************* //
