/*--------------------------------*- C++ -*----------------------------------*\
  =========                 |
  \\      /  F ield         | OpenFOAM: The Open Source CFD Toolbox
   \\    /   O peration     | Website:  https://openfoam.org
    \\  /    A nd           | Version:  13
     \\/     M anipulation  |
\*---------------------------------------------------------------------------*/
FoamFile
{
    format      ascii;
    class       surfaceScalarField;
    location    "0.2";
    object      phi;
}
// * * * * * * * * * * * * * * * * * * * * * * * * * * * * * * * * * * * * * //

dimensions      [1 0 -1 0 0 0 0];

internalField   nonuniform List<scalar> 
99
(
34.1301
34.2224
34.3146
34.4068
34.4989
34.591
34.6829
34.7748
34.8668
34.9587
35.0505
35.1424
35.2345
35.3271
35.4203
35.5143
35.609
35.7044
35.8003
35.8961
35.9916
36.0861
36.1795
36.272
36.3633
36.4522
36.5398
36.6265
36.7121
36.7965
36.8795
36.9612
37.0415
37.1207
37.1988
37.2759
37.352
37.4272
37.5015
37.5748
37.6471
37.7184
37.7886
37.8578
37.9259
37.9929
38.0588
38.1236
38.1874
38.2501
38.3119
38.3729
38.4333
38.493
38.5524
38.6109
38.6685
38.7268
38.7859
38.845
38.9032
38.9599
39.0144
39.0658
39.1128
39.1563
39.193
39.2242
39.2502
39.2705
39.2849
39.2938
39.2971
39.2951
39.2873
39.2732
39.2523
39.2243
39.1895
39.1485
39.102
39.0504
38.9937
38.9322
38.8658
38.7947
38.7188
38.6384
38.5533
38.4637
38.3697
38.2715
38.1694
38.064
37.9555
37.8451
37.7333
37.6196
37.5052
)
;

boundaryField
{
    sides
    {
        type            calculated;
        value           nonuniform List<scalar> 2(-34.0378 37.3926);
    }
    walls
    {
        type            empty;
    }
}


// ************************************************************************* //
