/*--------------------------------*- C++ -*----------------------------------*\
  =========                 |
  \\      /  F ield         | OpenFOAM: The Open Source CFD Toolbox
   \\    /   O peration     | Website:  https://openfoam.org
    \\  /    A nd           | Version:  13
     \\/     M anipulation  |
\*---------------------------------------------------------------------------*/
FoamFile
{
    format      ascii;
    class       volScalarField;
    location    "0.2";
    object      T;
}
// * * * * * * * * * * * * * * * * * * * * * * * * * * * * * * * * * * * * * //

dimensions      [0 0 0 1 0 0 0];

internalField   nonuniform List<scalar> 
100
(
166.731
166.733
166.731
166.731
166.733
166.734
166.737
166.739
166.74
166.741
166.741
166.74
166.738
166.733
166.725
166.713
166.696
166.674
166.649
166.622
166.594
166.568
166.546
166.527
166.51
166.499
166.498
166.499
166.501
166.507
166.516
166.53
166.546
166.566
166.587
166.61
166.635
166.66
166.687
166.714
166.741
166.769
166.798
166.827
166.855
166.884
166.913
166.941
166.968
166.995
167.019
167.041
167.06
167.074
167.082
167.085
167.083
167.074
167.054
167.023
166.986
166.943
166.899
166.854
166.818
166.785
166.759
166.758
166.763
166.778
166.804
166.841
166.888
166.944
167.01
167.085
167.174
167.276
167.391
167.516
167.649
167.787
167.929
168.074
168.221
168.37
168.52
168.672
168.824
168.977
169.13
169.284
169.437
169.588
169.736
169.88
170.017
170.15
170.264
170.416
)
;

boundaryField
{
    sides
    {
        type            zeroGradient;
    }
    walls
    {
        type            empty;
    }
}


// ************************************************************************* //
