/*--------------------------------*- C++ -*----------------------------------*\
  =========                 |
  \\      /  F ield         | OpenFOAM: The Open Source CFD Toolbox
   \\    /   O peration     | Website:  https://openfoam.org
    \\  /    A nd           | Version:  13
     \\/     M anipulation  |
\*---------------------------------------------------------------------------*/
FoamFile
{
    format      ascii;
    class       volScalarField;
    location    "0.2";
    object      T;
}
// * * * * * * * * * * * * * * * * * * * * * * * * * * * * * * * * * * * * * //

dimensions      [0 0 0 1 0 0 0];

internalField   nonuniform List<scalar> 
100
(
73.5325
73.5322
73.5484
73.5592
73.5721
73.5855
73.5995
73.6138
73.6283
73.6427
73.6571
73.6714
73.6854
73.6991
73.7127
73.726
73.7392
73.7522
73.765
73.7776
73.7902
73.8026
73.8149
73.8272
73.8393
73.8514
73.8635
73.8756
73.8877
73.8999
73.9121
73.9244
73.9369
73.9495
73.9623
73.9753
73.9884
74.0017
74.0152
74.0289
74.0427
74.0565
74.0703
74.0841
74.0977
74.111
74.1238
74.1354
74.145
74.1506
74.1506
74.1449
74.1353
74.1237
74.1109
74.0976
74.084
74.0702
74.0564
74.0426
74.0288
74.0151
74.0016
73.9883
73.9751
73.9622
73.9494
73.9368
73.9243
73.912
73.8998
73.8876
73.8755
73.8634
73.8513
73.8392
73.827
73.8148
73.8025
73.79
73.7775
73.7648
73.752
73.739
73.7259
73.7125
73.6989
73.6851
73.6711
73.6569
73.6425
73.628
73.6135
73.5992
73.5852
73.5718
73.5589
73.5481
73.5319
73.5322
)
;

boundaryField
{
    sides
    {
        type            zeroGradient;
    }
    walls
    {
        type            empty;
    }
}


// ************************************************************************* //
