/*--------------------------------*- C++ -*----------------------------------*\
  =========                 |
  \\      /  F ield         | OpenFOAM: The Open Source CFD Toolbox
   \\    /   O peration     | Website:  https://openfoam.org
    \\  /    A nd           | Version:  13
     \\/     M anipulation  |
\*---------------------------------------------------------------------------*/
FoamFile
{
    format      ascii;
    class       volVectorField;
    location    "0.2";
    object      U;
}
// * * * * * * * * * * * * * * * * * * * * * * * * * * * * * * * * * * * * * //

dimensions      [0 1 -1 0 0 0 0];

internalField   nonuniform List<vector> 
100
(
(-12.6872 0 0)
(-12.6259 0 0)
(-12.58 0 0)
(-12.5176 0 0)
(-12.4433 0 0)
(-12.3557 0 0)
(-12.2537 0 0)
(-12.1365 0 0)
(-12.0037 0 0)
(-11.8553 0 0)
(-11.6915 0 0)
(-11.5127 0 0)
(-11.3195 0 0)
(-11.1128 0 0)
(-10.8933 0 0)
(-10.662 0 0)
(-10.4199 0 0)
(-10.1681 0 0)
(-9.90744 0 0)
(-9.6389 0 0)
(-9.36333 0 0)
(-9.08154 0 0)
(-8.79424 0 0)
(-8.5021 0 0)
(-8.20567 0 0)
(-7.90542 0 0)
(-7.60177 0 0)
(-7.29507 0 0)
(-6.98562 0 0)
(-6.6737 0 0)
(-6.35955 0 0)
(-6.04338 0 0)
(-5.72538 0 0)
(-5.40574 0 0)
(-5.0846 0 0)
(-4.76211 0 0)
(-4.43839 0 0)
(-4.11358 0 0)
(-3.78778 0 0)
(-3.4611 0 0)
(-3.13365 0 0)
(-2.80554 0 0)
(-2.4769 0 0)
(-2.14746 0 0)
(-1.81797 0 0)
(-1.49482 0 0)
(-1.14504 0 0)
(-0.854875 0 0)
(-0.460769 0 0)
(-0.212674 0 0)
(0.21061 0 0)
(0.458648 0 0)
(0.852914 0 0)
(1.14285 0 0)
(1.49287 0 0)
(1.81589 0 0)
(2.14538 0 0)
(2.47483 0 0)
(2.80347 0 0)
(3.13159 0 0)
(3.45904 0 0)
(3.78572 0 0)
(4.11152 0 0)
(4.43633 0 0)
(4.76005 0 0)
(5.08254 0 0)
(5.40368 0 0)
(5.72333 0 0)
(6.04133 0 0)
(6.3575 0 0)
(6.67166 0 0)
(6.98358 0 0)
(7.29303 0 0)
(7.59973 0 0)
(7.90338 0 0)
(8.20363 0 0)
(8.50006 0 0)
(8.7922 0 0)
(9.07949 0 0)
(9.36129 0 0)
(9.63686 0 0)
(9.9054 0 0)
(10.1661 0 0)
(10.4179 0 0)
(10.66 0 0)
(10.8913 0 0)
(11.1107 0 0)
(11.3175 0 0)
(11.5107 0 0)
(11.6895 0 0)
(11.8533 0 0)
(12.0017 0 0)
(12.1345 0 0)
(12.2517 0 0)
(12.3538 0 0)
(12.4415 0 0)
(12.5159 0 0)
(12.5783 0 0)
(12.6243 0 0)
(12.6857 0 0)
)
;

boundaryField
{
    sides
    {
        type            zeroGradient;
    }
    walls
    {
        type            empty;
    }
}


// ************************************************************************* //
