/*--------------------------------*- C++ -*----------------------------------*\
  =========                 |
  \\      /  F ield         | OpenFOAM: The Open Source CFD Toolbox
   \\    /   O peration     | Website:  https://openfoam.org
    \\  /    A nd           | Version:  13
     \\/     M anipulation  |
\*---------------------------------------------------------------------------*/
FoamFile
{
    format      ascii;
    class       volVectorField;
    location    "0.2";
    object      U;
}
// * * * * * * * * * * * * * * * * * * * * * * * * * * * * * * * * * * * * * //

dimensions      [0 1 -1 0 0 0 0];

internalField   nonuniform List<vector> 
100
(
(49.0477 0 0)
(49.1545 0 0)
(49.3415 0 0)
(49.5342 0 0)
(49.6972 0 0)
(49.8373 0 0)
(49.9718 0 0)
(50.1097 0 0)
(50.2517 0 0)
(50.3955 0 0)
(50.5388 0 0)
(50.6811 0 0)
(50.8226 0 0)
(50.9638 0 0)
(51.1049 0 0)
(51.2457 0 0)
(51.3863 0 0)
(51.5266 0 0)
(51.6665 0 0)
(51.806 0 0)
(51.945 0 0)
(52.0835 0 0)
(52.2214 0 0)
(52.3587 0 0)
(52.4953 0 0)
(52.6313 0 0)
(52.7666 0 0)
(52.9013 0 0)
(53.0354 0 0)
(53.1686 0 0)
(53.3008 0 0)
(53.4321 0 0)
(53.5624 0 0)
(53.6917 0 0)
(53.82 0 0)
(53.9471 0 0)
(54.0731 0 0)
(54.1978 0 0)
(54.3211 0 0)
(54.4431 0 0)
(54.5636 0 0)
(54.6825 0 0)
(54.7998 0 0)
(54.9153 0 0)
(55.029 0 0)
(55.1407 0 0)
(55.2504 0 0)
(55.358 0 0)
(55.4633 0 0)
(55.5663 0 0)
(55.6667 0 0)
(55.7646 0 0)
(55.8597 0 0)
(55.9519 0 0)
(56.0412 0 0)
(56.1273 0 0)
(56.2095 0 0)
(56.2883 0 0)
(56.3641 0 0)
(56.4366 0 0)
(56.5053 0 0)
(56.57 0 0)
(56.6306 0 0)
(56.687 0 0)
(56.7392 0 0)
(56.7868 0 0)
(56.8299 0 0)
(56.8688 0 0)
(56.9037 0 0)
(56.9339 0 0)
(56.9588 0 0)
(56.9787 0 0)
(56.9936 0 0)
(57.0037 0 0)
(57.0089 0 0)
(57.009 0 0)
(57.0038 0 0)
(56.9928 0 0)
(56.9762 0 0)
(56.9536 0 0)
(56.9253 0 0)
(56.8911 0 0)
(56.851 0 0)
(56.8048 0 0)
(56.7525 0 0)
(56.694 0 0)
(56.6293 0 0)
(56.5585 0 0)
(56.4814 0 0)
(56.3983 0 0)
(56.3092 0 0)
(56.2144 0 0)
(56.1139 0 0)
(56.0082 0 0)
(55.8974 0 0)
(55.7818 0 0)
(55.6625 0 0)
(55.5398 0 0)
(55.4159 0 0)
(55.2213 0 0)
)
;

boundaryField
{
    sides
    {
        type            zeroGradient;
    }
    walls
    {
        type            empty;
    }
}


// ************************************************************************* //
