/*--------------------------------*- C++ -*----------------------------------*\
  =========                 |
  \\      /  F ield         | OpenFOAM: The Open Source CFD Toolbox
   \\    /   O peration     | Website:  https://openfoam.org
    \\  /    A nd           | Version:  13
     \\/     M anipulation  |
\*---------------------------------------------------------------------------*/
FoamFile
{
    format      ascii;
    class       volScalarField;
    location    "0.3";
    object      p;
}
// * * * * * * * * * * * * * * * * * * * * * * * * * * * * * * * * * * * * * //

dimensions      [1 -1 -2 0 0 0 0];

internalField   nonuniform List<scalar> 
100
(
7843.15
7842.95
7842.46
7841.9
7841.43
7841.09
7840.81
7840.56
7840.32
7840.11
7839.93
7839.79
7839.7
7839.64
7839.63
7839.65
7839.7
7839.77
7839.89
7840.04
7840.24
7840.48
7840.77
7841.11
7841.49
7841.92
7842.4
7842.93
7843.51
7844.14
7844.82
7845.55
7846.33
7847.16
7848.04
7848.97
7849.96
7850.99
7852.07
7853.21
7854.39
7855.61
7856.89
7858.2
7859.57
7860.97
7862.41
7863.89
7865.4
7866.95
7868.53
7870.13
7871.77
7873.42
7875.09
7876.77
7878.46
7880.16
7881.86
7883.56
7885.25
7886.92
7888.58
7890.21
7891.82
7893.39
7894.92
7896.41
7897.85
7899.25
7900.59
7901.88
7903.12
7904.31
7905.44
7906.52
7907.55
7908.53
7909.46
7910.35
7911.18
7911.98
7912.73
7913.44
7914.11
7914.74
7915.33
7915.9
7916.42
7916.92
7917.39
7917.84
7918.26
7918.66
7919.04
7919.39
7919.74
7920.06
7920.37
7920.65
)
;

boundaryField
{
    sides
    {
        type            zeroGradient;
    }
    walls
    {
        type            empty;
    }
}


// ************************************************************************* //
