/*--------------------------------*- C++ -*----------------------------------*\
  =========                 |
  \\      /  F ield         | OpenFOAM: The Open Source CFD Toolbox
   \\    /   O peration     | Website:  https://openfoam.org
    \\  /    A nd           | Version:  13
     \\/     M anipulation  |
\*---------------------------------------------------------------------------*/
FoamFile
{
    format      ascii;
    class       volScalarField;
    location    "0.3";
    object      p;
}
// * * * * * * * * * * * * * * * * * * * * * * * * * * * * * * * * * * * * * //

dimensions      [1 -1 -2 0 0 0 0];

internalField   nonuniform List<scalar> 
100
(
1057.34
1057.22
1057.13
1057.03
1056.94
1056.86
1056.78
1056.71
1056.64
1056.58
1056.53
1056.49
1056.46
1056.43
1056.43
1056.43
1056.46
1056.5
1056.55
1056.63
1056.73
1056.86
1057.01
1057.19
1057.39
1057.63
1057.89
1058.19
1058.52
1058.88
1059.26
1059.68
1060.12
1060.59
1061.08
1061.58
1062.1
1062.62
1063.14
1063.65
1064.14
1064.61
1065.05
1065.45
1065.81
1066.12
1066.37
1066.57
1066.7
1066.76
1066.76
1066.7
1066.57
1066.37
1066.12
1065.81
1065.45
1065.05
1064.61
1064.14
1063.64
1063.14
1062.62
1062.1
1061.58
1061.08
1060.59
1060.13
1059.68
1059.27
1058.88
1058.52
1058.19
1057.9
1057.63
1057.4
1057.19
1057.01
1056.86
1056.74
1056.64
1056.56
1056.5
1056.46
1056.44
1056.43
1056.44
1056.46
1056.49
1056.54
1056.59
1056.65
1056.71
1056.79
1056.86
1056.95
1057.04
1057.13
1057.23
1057.34
)
;

boundaryField
{
    sides
    {
        type            zeroGradient;
    }
    walls
    {
        type            empty;
    }
}


// ************************************************************************* //
