/*--------------------------------*- C++ -*----------------------------------*\
  =========                 |
  \\      /  F ield         | OpenFOAM: The Open Source CFD Toolbox
   \\    /   O peration     | Website:  https://openfoam.org
    \\  /    A nd           | Version:  13
     \\/     M anipulation  |
\*---------------------------------------------------------------------------*/
FoamFile
{
    format      ascii;
    class       surfaceScalarField;
    location    "0.3";
    object      phi;
}
// * * * * * * * * * * * * * * * * * * * * * * * * * * * * * * * * * * * * * //

dimensions      [1 0 -1 0 0 0 0];

internalField   nonuniform List<scalar> 
99
(
-1.71867
-1.67231
-1.62602
-1.57982
-1.53374
-1.48778
-1.44199
-1.39637
-1.35096
-1.30578
-1.26087
-1.21625
-1.17197
-1.12808
-1.08465
-1.04166
-0.99918
-0.957249
-0.915922
-0.875248
-0.835276
-0.796052
-0.757624
-0.720034
-0.683322
-0.647526
-0.612676
-0.578796
-0.545901
-0.513997
-0.483079
-0.453128
-0.424112
-0.395984
-0.368682
-0.342132
-0.316246
-0.29093
-0.26608
-0.241592
-0.217365
-0.193303
-0.169321
-0.145349
-0.121336
-0.0972499
-0.0730769
-0.0488258
-0.0245079
-0.000158194
0.0241916
0.0485101
0.0727619
0.096936
0.121023
0.145039
0.169013
0.192998
0.217064
0.241295
0.265787
0.290642
0.315964
0.341855
0.368412
0.39572
0.423854
0.452877
0.482834
0.513759
0.545668
0.578569
0.612455
0.647311
0.683112
0.719828
0.757422
0.795855
0.835083
0.875059
0.915737
0.957067
0.999
1.04149
1.08447
1.12791
1.1718
1.21608
1.2607
1.30561
1.35079
1.39621
1.44183
1.48762
1.53358
1.57966
1.62586
1.67215
1.71852
)
;

boundaryField
{
    sides
    {
        type            calculated;
        value           nonuniform List<scalar> 2(1.76511 1.76495);
    }
    walls
    {
        type            empty;
    }
}


// ************************************************************************* //
