/*--------------------------------*- C++ -*----------------------------------*\
  =========                 |
  \\      /  F ield         | OpenFOAM: The Open Source CFD Toolbox
   \\    /   O peration     | Website:  https://openfoam.org
    \\  /    A nd           | Version:  13
     \\/     M anipulation  |
\*---------------------------------------------------------------------------*/
FoamFile
{
    format      ascii;
    class       surfaceScalarField;
    location    "0.3";
    object      phi;
}
// * * * * * * * * * * * * * * * * * * * * * * * * * * * * * * * * * * * * * //

dimensions      [1 0 -1 0 0 0 0];

internalField   nonuniform List<scalar> 
99
(
33.1175
33.1447
33.1717
33.1985
33.2251
33.2515
33.2777
33.3036
33.3293
33.3548
33.3799
33.4047
33.4292
33.4533
33.477
33.5005
33.5238
33.5468
33.5695
33.5918
33.6138
33.6356
33.657
33.6782
33.6992
33.7199
33.7402
33.7605
33.7803
33.7996
33.8183
33.8361
33.853
33.869
33.8842
33.8985
33.9119
33.9246
33.9365
33.9477
33.958
33.9677
33.9767
33.9851
33.9929
34.0001
34.0069
34.0132
34.0191
34.0246
34.0297
34.0346
34.0392
34.0436
34.0478
34.0519
34.056
34.0601
34.0643
34.0688
34.0736
34.0789
34.0848
34.0915
34.099
34.1075
34.1176
34.1285
34.1403
34.1532
34.1673
34.1825
34.1976
34.2126
34.2276
34.243
34.2582
34.2729
34.2872
34.3013
34.3152
34.3292
34.3431
34.357
34.3709
34.3846
34.3983
34.4119
34.4257
34.4396
34.4537
34.468
34.4825
34.4972
34.5119
34.5269
34.542
34.5573
34.5726
)
;

boundaryField
{
    sides
    {
        type            calculated;
        value           nonuniform List<scalar> 2(-33.0902 34.5882);
    }
    walls
    {
        type            empty;
    }
}


// ************************************************************************* //
