/*--------------------------------*- C++ -*----------------------------------*\
  =========                 |
  \\      /  F ield         | OpenFOAM: The Open Source CFD Toolbox
   \\    /   O peration     | Website:  https://openfoam.org
    \\  /    A nd           | Version:  13
     \\/     M anipulation  |
\*---------------------------------------------------------------------------*/
FoamFile
{
    format      ascii;
    class       volScalarField;
    location    "0.3";
    object      T;
}
// * * * * * * * * * * * * * * * * * * * * * * * * * * * * * * * * * * * * * //

dimensions      [0 0 0 1 0 0 0];

internalField   nonuniform List<scalar> 
100
(
163.751
163.752
163.752
163.753
163.754
163.756
163.758
163.761
163.764
163.767
163.77
163.774
163.777
163.781
163.786
163.79
163.794
163.799
163.803
163.807
163.811
163.815
163.818
163.821
163.822
163.823
163.822
163.821
163.819
163.816
163.814
163.814
163.815
163.818
163.823
163.829
163.837
163.847
163.858
163.87
163.884
163.899
163.915
163.932
163.95
163.968
163.987
164.007
164.026
164.046
164.067
164.087
164.108
164.128
164.149
164.17
164.19
164.211
164.231
164.25
164.268
164.286
164.301
164.315
164.326
164.335
164.34
164.341
164.339
164.337
164.331
164.322
164.314
164.309
164.307
164.307
164.309
164.315
164.325
164.34
164.357
164.377
164.399
164.423
164.449
164.478
164.508
164.54
164.573
164.607
164.641
164.675
164.709
164.743
164.777
164.81
164.843
164.876
164.905
164.956
)
;

boundaryField
{
    sides
    {
        type            zeroGradient;
    }
    walls
    {
        type            empty;
    }
}


// ************************************************************************* //
