/*--------------------------------*- C++ -*----------------------------------*\
  =========                 |
  \\      /  F ield         | OpenFOAM: The Open Source CFD Toolbox
   \\    /   O peration     | Website:  https://openfoam.org
    \\  /    A nd           | Version:  13
     \\/     M anipulation  |
\*---------------------------------------------------------------------------*/
FoamFile
{
    format      ascii;
    class       volScalarField;
    location    "0.3";
    object      T;
}
// * * * * * * * * * * * * * * * * * * * * * * * * * * * * * * * * * * * * * //

dimensions      [0 0 0 1 0 0 0];

internalField   nonuniform List<scalar> 
100
(
67.8751
67.8732
67.8792
67.8831
67.8873
67.8916
67.8961
67.9007
67.9055
67.9104
67.9155
67.9209
67.9265
67.9324
67.9386
67.9451
67.952
67.9593
67.967
67.9752
67.9839
67.9931
68.0029
68.0133
68.0243
68.0361
68.0485
68.0616
68.0755
68.0901
68.1054
68.1215
68.1382
68.1555
68.1734
68.1918
68.2106
68.2296
68.2487
68.2677
68.2866
68.3051
68.323
68.3401
68.3563
68.3714
68.3849
68.3964
68.4049
68.4096
68.4095
68.4049
68.3963
68.3848
68.3713
68.3562
68.34
68.3228
68.3049
68.2865
68.2676
68.2486
68.2295
68.2105
68.1917
68.1733
68.1554
68.1381
68.1214
68.1053
68.09
68.0754
68.0615
68.0484
68.036
68.0243
68.0132
68.0028
67.9931
67.9838
67.9752
67.967
67.9593
67.952
67.9451
67.9386
67.9324
67.9265
67.9209
67.9155
67.9104
67.9054
67.9006
67.896
67.8916
67.8873
67.883
67.8792
67.8731
67.8751
)
;

boundaryField
{
    sides
    {
        type            zeroGradient;
    }
    walls
    {
        type            empty;
    }
}


// ************************************************************************* //
