/*--------------------------------*- C++ -*----------------------------------*\
  =========                 |
  \\      /  F ield         | OpenFOAM: The Open Source CFD Toolbox
   \\    /   O peration     | Website:  https://openfoam.org
    \\  /    A nd           | Version:  13
     \\/     M anipulation  |
\*---------------------------------------------------------------------------*/
FoamFile
{
    format      ascii;
    class       volVectorField;
    location    "0.3";
    object      U;
}
// * * * * * * * * * * * * * * * * * * * * * * * * * * * * * * * * * * * * * //

dimensions      [0 1 -1 0 0 0 0];

internalField   nonuniform List<vector> 
100
(
(-8.14874 0 0)
(-7.81734 0 0)
(-7.6163 0 0)
(-7.40364 0 0)
(-7.19158 0 0)
(-6.98002 0 0)
(-6.76907 0 0)
(-6.55881 0 0)
(-6.34939 0 0)
(-6.14092 0 0)
(-5.93354 0 0)
(-5.7274 0 0)
(-5.52267 0 0)
(-5.31957 0 0)
(-5.1183 0 0)
(-4.91901 0 0)
(-4.72186 0 0)
(-4.52709 0 0)
(-4.33493 0 0)
(-4.14561 0 0)
(-3.95935 0 0)
(-3.77638 0 0)
(-3.59691 0 0)
(-3.42116 0 0)
(-3.24931 0 0)
(-3.08156 0 0)
(-2.91805 0 0)
(-2.75891 0 0)
(-2.60425 0 0)
(-2.45412 0 0)
(-2.30852 0 0)
(-2.1674 0 0)
(-2.03066 0 0)
(-1.89812 0 0)
(-1.76954 0 0)
(-1.64461 0 0)
(-1.52297 0 0)
(-1.40421 0 0)
(-1.28788 0 0)
(-1.1735 0 0)
(-1.06063 0 0)
(-0.948816 0 0)
(-0.837643 0 0)
(-0.726627 0 0)
(-0.615386 0 0)
(-0.507051 0 0)
(-0.383042 0 0)
(-0.296521 0 0)
(-0.147064 0 0)
(-0.0820315 0 0)
(0.080563 0 0)
(0.145588 0 0)
(0.295106 0 0)
(0.381547 0 0)
(0.505627 0 0)
(0.613933 0 0)
(0.725197 0 0)
(0.836225 0 0)
(0.947412 0 0)
(1.05924 0 0)
(1.17214 0 0)
(1.28653 0 0)
(1.40289 0 0)
(1.52168 0 0)
(1.64335 0 0)
(1.7683 0 0)
(1.89691 0 0)
(2.02948 0 0)
(2.16625 0 0)
(2.3074 0 0)
(2.45302 0 0)
(2.60318 0 0)
(2.75787 0 0)
(2.91703 0 0)
(3.08056 0 0)
(3.24834 0 0)
(3.42021 0 0)
(3.59598 0 0)
(3.77546 0 0)
(3.95845 0 0)
(4.14472 0 0)
(4.33406 0 0)
(4.52623 0 0)
(4.72101 0 0)
(4.91817 0 0)
(5.11748 0 0)
(5.31876 0 0)
(5.52187 0 0)
(5.7266 0 0)
(5.93274 0 0)
(6.14013 0 0)
(6.34861 0 0)
(6.55804 0 0)
(6.76829 0 0)
(6.97925 0 0)
(7.19082 0 0)
(7.40288 0 0)
(7.61554 0 0)
(7.81658 0 0)
(8.14799 0 0)
)
;

boundaryField
{
    sides
    {
        type            zeroGradient;
    }
    walls
    {
        type            empty;
    }
}


// ************************************************************************* //
