/*--------------------------------*- C++ -*----------------------------------*\
  =========                 |
  \\      /  F ield         | OpenFOAM: The Open Source CFD Toolbox
   \\    /   O peration     | Website:  https://openfoam.org
    \\  /    A nd           | Version:  13
     \\/     M anipulation  |
\*---------------------------------------------------------------------------*/
FoamFile
{
    format      ascii;
    class       volVectorField;
    location    "0.3";
    object      U;
}
// * * * * * * * * * * * * * * * * * * * * * * * * * * * * * * * * * * * * * //

dimensions      [0 1 -1 0 0 0 0];

internalField   nonuniform List<vector> 
100
(
(49.6908 0 0)
(49.7226 0 0)
(49.78 0 0)
(49.8399 0 0)
(49.8898 0 0)
(49.9315 0 0)
(49.9708 0 0)
(50.0109 0 0)
(50.052 0 0)
(50.0931 0 0)
(50.1336 0 0)
(50.1732 0 0)
(50.2119 0 0)
(50.2498 0 0)
(50.287 0 0)
(50.3237 0 0)
(50.3602 0 0)
(50.396 0 0)
(50.431 0 0)
(50.4653 0 0)
(50.4987 0 0)
(50.5312 0 0)
(50.5628 0 0)
(50.5935 0 0)
(50.6232 0 0)
(50.6519 0 0)
(50.6796 0 0)
(50.7062 0 0)
(50.732 0 0)
(50.7566 0 0)
(50.7801 0 0)
(50.8027 0 0)
(50.8241 0 0)
(50.8445 0 0)
(50.8636 0 0)
(50.8817 0 0)
(50.8987 0 0)
(50.9146 0 0)
(50.9294 0 0)
(50.9432 0 0)
(50.9559 0 0)
(50.9676 0 0)
(50.9783 0 0)
(50.9881 0 0)
(50.9968 0 0)
(51.0047 0 0)
(51.0117 0 0)
(51.0178 0 0)
(51.0232 0 0)
(51.0279 0 0)
(51.0319 0 0)
(51.0352 0 0)
(51.038 0 0)
(51.0404 0 0)
(51.0423 0 0)
(51.044 0 0)
(51.0454 0 0)
(51.0467 0 0)
(51.048 0 0)
(51.0494 0 0)
(51.051 0 0)
(51.0529 0 0)
(51.0553 0 0)
(51.0582 0 0)
(51.0617 0 0)
(51.0661 0 0)
(51.0714 0 0)
(51.0777 0 0)
(51.0848 0 0)
(51.0931 0 0)
(51.1026 0 0)
(51.1135 0 0)
(51.1258 0 0)
(51.139 0 0)
(51.1533 0 0)
(51.169 0 0)
(51.186 0 0)
(51.2039 0 0)
(51.2228 0 0)
(51.2426 0 0)
(51.2635 0 0)
(51.2854 0 0)
(51.3083 0 0)
(51.3321 0 0)
(51.3567 0 0)
(51.3821 0 0)
(51.4083 0 0)
(51.4351 0 0)
(51.4625 0 0)
(51.4906 0 0)
(51.5192 0 0)
(51.5483 0 0)
(51.5777 0 0)
(51.6076 0 0)
(51.6378 0 0)
(51.6682 0 0)
(51.6988 0 0)
(51.7296 0 0)
(51.7613 0 0)
(51.8088 0 0)
)
;

boundaryField
{
    sides
    {
        type            zeroGradient;
    }
    walls
    {
        type            empty;
    }
}


// ************************************************************************* //
