/*--------------------------------*- C++ -*----------------------------------*\
  =========                 |
  \\      /  F ield         | OpenFOAM: The Open Source CFD Toolbox
   \\    /   O peration     | Website:  https://openfoam.org
    \\  /    A nd           | Version:  13
     \\/     M anipulation  |
\*---------------------------------------------------------------------------*/
FoamFile
{
    format      ascii;
    class       volScalarField;
    location    "0.004";
    object      p;
}
// * * * * * * * * * * * * * * * * * * * * * * * * * * * * * * * * * * * * * //

dimensions      [1 -1 -2 0 0 0 0];

internalField   nonuniform List<scalar> 
100
(
100000
100000
100000
100000
100000
100000
100000
100000
100000
100000
100000
100000
100000
100000
100000
100000
100000
100000
100000
100000
100000
100000
99999.9
99999.6
99998.4
99994.8
99983.6
99950.8
99860.9
99638.3
99158.7
98235.2
96661.2
94307.9
91183.3
87434.2
83266.7
78880.7
74432.9
70035.5
65763.3
61665.1
57771.1
54098.9
50656.9
47446.2
44461
41688.2
39108.3
36717.6
34528.1
32557.2
30863.5
29311.5
29325.9
29361.9
29423.4
29510.6
29620.2
29745.5
29882
29877.8
29865.9
29849
29825.3
29781.3
29697.3
29548.7
29300.8
28892.5
28186.7
26826.1
23551.4
15278.2
10780.7
10118.6
10017.3
10002.5
10000.4
10000
10000
10000
10000
10000
10000
10000
10000
10000
10000
10000
10000
10000
10000
10000
10000
10000
10000
10000
10000
10000
)
;

boundaryField
{
    sides
    {
        type            zeroGradient;
    }
    walls
    {
        type            empty;
    }
}


// ************************************************************************* //
