/*--------------------------------*- C++ -*----------------------------------*\
  =========                 |
  \\      /  F ield         | OpenFOAM: The Open Source CFD Toolbox
   \\    /   O peration     | Website:  https://openfoam.org
    \\  /    A nd           | Version:  13
     \\/     M anipulation  |
\*---------------------------------------------------------------------------*/
FoamFile
{
    format      ascii;
    class       surfaceScalarField;
    location    "0.004";
    object      phi;
}
// * * * * * * * * * * * * * * * * * * * * * * * * * * * * * * * * * * * * * //

dimensions      [1 0 -1 0 0 0 0];

internalField   nonuniform List<scalar> 
99
(
-7.08367e-12
-2.27729e-12
2.37055e-12
-1.1946e-12
-2.28173e-12
0
2.27818e-12
1.1946e-12
-2.32347e-12
3.4821e-12
3.77423e-11
2.33301e-10
1.27104e-09
6.38115e-09
3.14885e-08
1.4797e-07
6.84167e-07
3.01537e-06
1.30012e-05
5.34585e-05
0.000213762
0.000815015
0.00300268
0.0105367
0.0354793
0.113504
0.345495
0.993142
2.69044
6.51897
14.2251
27.964
49.4533
78.977
115.073
155.259
196.958
238.095
277.217
313.422
346.195
375.305
400.691
422.428
440.676
455.665
467.664
476.954
483.846
488.723
491.226
491.969
493.653
493.188
492.404
490.794
487.698
481.193
467.485
441.919
402.749
357.479
325.143
311.595
305.861
302.8
300.488
297.609
293.504
287.54
276.248
249.24
173.162
30.4733
5.47985
0.788431
0.112817
0.0162475
0.00231335
0.000327532
4.60936e-05
6.43729e-06
8.92223e-07
1.22673e-07
1.6732e-08
2.26499e-09
3.05376e-10
4.08171e-11
5.15799e-12
5.76206e-13
-1.4666e-13
-1.4222e-13
1.4666e-13
1.42608e-13
0
-1.4666e-13
-1.4222e-13
1.4666e-13
1.42275e-13
)
;

boundaryField
{
    sides
    {
        type            calculated;
        value           nonuniform List<scalar> 2(6.96571e-12 1.10436e-27);
    }
    walls
    {
        type            empty;
    }
}


// ************************************************************************* //
