/*--------------------------------*- C++ -*----------------------------------*\
  =========                 |
  \\      /  F ield         | OpenFOAM: The Open Source CFD Toolbox
   \\    /   O peration     | Website:  https://openfoam.org
    \\  /    A nd           | Version:  13
     \\/     M anipulation  |
\*---------------------------------------------------------------------------*/
FoamFile
{
    format      ascii;
    class       volVectorField;
    location    "0.004";
    object      U;
}
// * * * * * * * * * * * * * * * * * * * * * * * * * * * * * * * * * * * * * //

dimensions      [0 1 -1 0 0 0 0];

internalField   nonuniform List<vector> 
100
(
(-1.7461e-12 0 0)
(-1.74814e-12 0 0)
(5.83054e-13 0 0)
(5.82908e-13 0 0)
(-1.16596e-12 0 0)
(0 0 0)
(0 0 0)
(1.16596e-12 0 0)
(-5.82908e-13 0 0)
(-5.41772e-13 0 0)
(2.47401e-12 0 0)
(1.78964e-11 0 0)
(1.06203e-10 0 0)
(5.69971e-10 0 0)
(2.81353e-09 0 0)
(1.38749e-08 0 0)
(6.43162e-08 0 0)
(2.96969e-07 0 0)
(1.29069e-06 0 0)
(5.54847e-06 0 0)
(2.24918e-05 0 0)
(8.94975e-05 0 0)
(0.000336268 0 0)
(0.00122995 0 0)
(0.00425027 0 0)
(0.0141652 0 0)
(0.0445523 0 0)
(0.13349 0 0)
(0.373909 0 0)
(0.957226 0 0)
(2.21021 0 0)
(4.63078 0 0)
(8.77412 0 0)
(15.1102 0 0)
(23.7753 0 0)
(34.6213 0 0)
(47.236 0 0)
(61.215 0 0)
(76.1381 0 0)
(91.7349 0 0)
(107.749 0 0)
(124.03 0 0)
(140.433 0 0)
(156.863 0 0)
(173.238 0 0)
(189.503 0 0)
(205.64 0 0)
(221.681 0 0)
(237.646 0 0)
(253.443 0 0)
(268.819 0 0)
(283.228 0 0)
(296.729 0 0)
(303.587 0 0)
(303.852 0 0)
(303.619 0 0)
(303.003 0 0)
(302.257 0 0)
(301.47 0 0)
(300.43 0 0)
(299.292 0 0)
(297.714 0 0)
(294.961 0 0)
(291.53 0 0)
(288.279 0 0)
(285.7 0 0)
(283.628 0 0)
(281.395 0 0)
(278.106 0 0)
(272.681 0 0)
(263.276 0 0)
(244.89 0 0)
(200.516 0 0)
(106.794 0 0)
(21.3678 0 0)
(3.00149 0 0)
(0.426069 0 0)
(0.0614296 0 0)
(0.00875036 0 0)
(0.00124025 0 0)
(0.00017478 0 0)
(2.44414e-05 0 0)
(3.39251e-06 0 0)
(4.67113e-07 0 0)
(6.38036e-08 0 0)
(8.64553e-09 0 0)
(1.16617e-09 0 0)
(1.57125e-10 0 0)
(1.9787e-11 0 0)
(2.57481e-12 0 0)
(8.68484e-28 0 0)
(-5.83493e-13 0 0)
(0 0 0)
(5.83493e-13 0 0)
(2.21572e-27 0 0)
(-2.28833e-27 0 0)
(-5.83493e-13 0 0)
(0 0 0)
(5.83493e-13 0 0)
(2.2141e-27 0 0)
)
;

boundaryField
{
    sides
    {
        type            zeroGradient;
    }
    walls
    {
        type            empty;
    }
}


// ************************************************************************* //
