/*--------------------------------*- C++ -*----------------------------------*\
  =========                 |
  \\      /  F ield         | OpenFOAM: The Open Source CFD Toolbox
   \\    /   O peration     | Website:  https://openfoam.org
    \\  /    A nd           | Version:  13
     \\/     M anipulation  |
\*---------------------------------------------------------------------------*/
FoamFile
{
    format      ascii;
    class       volScalarField;
    location    "0.6";
    object      p;
}
// * * * * * * * * * * * * * * * * * * * * * * * * * * * * * * * * * * * * * //

dimensions      [1 -1 -2 0 0 0 0];

internalField   nonuniform List<scalar> 
100
(
663.693
663.664
663.634
663.6
663.562
663.519
663.472
663.42
663.364
663.302
663.235
663.162
663.084
663.001
662.911
662.816
662.714
662.607
662.494
662.376
662.252
662.124
661.991
661.855
661.715
661.572
661.428
661.283
661.137
660.992
660.848
660.707
660.568
660.433
660.302
660.177
660.057
659.943
659.837
659.738
659.646
659.563
659.488
659.422
659.365
659.317
659.278
659.249
659.23
659.22
659.22
659.23
659.249
659.278
659.317
659.365
659.422
659.488
659.562
659.646
659.737
659.836
659.943
660.056
660.176
660.301
660.432
660.567
660.706
660.847
660.991
661.136
661.282
661.427
661.571
661.714
661.853
661.99
662.123
662.251
662.375
662.493
662.606
662.713
662.814
662.91
662.999
663.083
663.161
663.234
663.301
663.362
663.419
663.471
663.518
663.561
663.599
663.633
663.663
663.691
)
;

boundaryField
{
    sides
    {
        type            zeroGradient;
    }
    walls
    {
        type            empty;
    }
}


// ************************************************************************* //
