/*--------------------------------*- C++ -*----------------------------------*\
  =========                 |
  \\      /  F ield         | OpenFOAM: The Open Source CFD Toolbox
   \\    /   O peration     | Website:  https://openfoam.org
    \\  /    A nd           | Version:  13
     \\/     M anipulation  |
\*---------------------------------------------------------------------------*/
FoamFile
{
    format      ascii;
    class       volScalarField;
    location    "0.6";
    object      p;
}
// * * * * * * * * * * * * * * * * * * * * * * * * * * * * * * * * * * * * * //

dimensions      [1 -1 -2 0 0 0 0];

internalField   nonuniform List<scalar> 
100
(
7705.62
7705.61
7705.59
7705.57
7705.55
7705.54
7705.52
7705.5
7705.48
7705.46
7705.44
7705.42
7705.4
7705.38
7705.35
7705.33
7705.31
7705.28
7705.26
7705.23
7705.21
7705.18
7705.15
7705.13
7705.1
7705.07
7705.04
7705.01
7704.98
7704.95
7704.92
7704.88
7704.85
7704.82
7704.78
7704.75
7704.71
7704.68
7704.64
7704.6
7704.56
7704.52
7704.49
7704.45
7704.41
7704.36
7704.32
7704.28
7704.24
7704.2
7704.15
7704.11
7704.06
7704.02
7703.97
7703.93
7703.88
7703.84
7703.79
7703.75
7703.7
7703.65
7703.61
7703.56
7703.51
7703.47
7703.42
7703.38
7703.33
7703.28
7703.24
7703.2
7703.15
7703.11
7703.07
7703.03
7702.99
7702.95
7702.91
7702.87
7702.84
7702.8
7702.77
7702.74
7702.71
7702.68
7702.65
7702.63
7702.6
7702.58
7702.56
7702.54
7702.52
7702.51
7702.49
7702.48
7702.47
7702.46
7702.45
7702.44
)
;

boundaryField
{
    sides
    {
        type            zeroGradient;
    }
    walls
    {
        type            empty;
    }
}


// ************************************************************************* //
