/*--------------------------------*- C++ -*----------------------------------*\
  =========                 |
  \\      /  F ield         | OpenFOAM: The Open Source CFD Toolbox
   \\    /   O peration     | Website:  https://openfoam.org
    \\  /    A nd           | Version:  13
     \\/     M anipulation  |
\*---------------------------------------------------------------------------*/
FoamFile
{
    format      ascii;
    class       surfaceScalarField;
    location    "0.6";
    object      phi;
}
// * * * * * * * * * * * * * * * * * * * * * * * * * * * * * * * * * * * * * //

dimensions      [1 0 -1 0 0 0 0];

internalField   nonuniform List<scalar> 
99
(
32.8054
32.8061
32.8069
32.8077
32.8084
32.8092
32.81
32.8108
32.8115
32.8123
32.8131
32.8139
32.8146
32.8154
32.8161
32.8169
32.8176
32.8183
32.819
32.8197
32.8204
32.8211
32.8217
32.8223
32.8229
32.8235
32.8241
32.8246
32.8252
32.8257
32.8262
32.8267
32.8272
32.8276
32.8281
32.8285
32.8289
32.8293
32.8297
32.8301
32.8305
32.8308
32.8311
32.8314
32.8318
32.832
32.8323
32.8326
32.8329
32.8332
32.8334
32.8337
32.8339
32.8342
32.8344
32.8346
32.8348
32.835
32.8351
32.8353
32.8353
32.8354
32.8354
32.8354
32.8354
32.8353
32.8352
32.8351
32.835
32.8349
32.8347
32.8345
32.8343
32.8341
32.8339
32.8337
32.8334
32.8332
32.8329
32.8327
32.8324
32.8321
32.8318
32.8315
32.8313
32.831
32.8307
32.8305
32.8303
32.8301
32.8299
32.8297
32.8296
32.8294
32.8293
32.8293
32.8292
32.8292
32.8291
)
;

boundaryField
{
    sides
    {
        type            calculated;
        value           nonuniform List<scalar> 2(-32.8046 32.8289);
    }
    walls
    {
        type            empty;
    }
}


// ************************************************************************* //
