/*--------------------------------*- C++ -*----------------------------------*\
  =========                 |
  \\      /  F ield         | OpenFOAM: The Open Source CFD Toolbox
   \\    /   O peration     | Website:  https://openfoam.org
    \\  /    A nd           | Version:  13
     \\/     M anipulation  |
\*---------------------------------------------------------------------------*/
FoamFile
{
    format      ascii;
    class       volScalarField;
    location    "0.6";
    object      T;
}
// * * * * * * * * * * * * * * * * * * * * * * * * * * * * * * * * * * * * * //

dimensions      [0 0 0 1 0 0 0];

internalField   nonuniform List<scalar> 
100
(
162.873
162.873
162.873
162.873
162.873
162.873
162.873
162.873
162.873
162.872
162.872
162.872
162.872
162.872
162.871
162.871
162.871
162.871
162.87
162.87
162.87
162.87
162.87
162.87
162.87
162.87
162.87
162.87
162.87
162.87
162.87
162.87
162.87
162.87
162.87
162.87
162.87
162.871
162.871
162.871
162.871
162.871
162.871
162.871
162.871
162.871
162.87
162.87
162.87
162.87
162.87
162.869
162.869
162.868
162.868
162.867
162.867
162.866
162.866
162.865
162.865
162.865
162.865
162.865
162.865
162.865
162.865
162.865
162.865
162.865
162.866
162.866
162.866
162.867
162.867
162.868
162.868
162.869
162.869
162.869
162.87
162.87
162.871
162.871
162.872
162.872
162.872
162.872
162.872
162.872
162.872
162.872
162.872
162.872
162.871
162.87
162.87
162.869
162.868
162.868
)
;

boundaryField
{
    sides
    {
        type            zeroGradient;
    }
    walls
    {
        type            empty;
    }
}


// ************************************************************************* //
