/*--------------------------------*- C++ -*----------------------------------*\
  =========                 |
  \\      /  F ield         | OpenFOAM: The Open Source CFD Toolbox
   \\    /   O peration     | Website:  https://openfoam.org
    \\  /    A nd           | Version:  13
     \\/     M anipulation  |
\*---------------------------------------------------------------------------*/
FoamFile
{
    format      ascii;
    class       volScalarField;
    location    "0.6";
    object      T;
}
// * * * * * * * * * * * * * * * * * * * * * * * * * * * * * * * * * * * * * //

dimensions      [0 0 0 1 0 0 0];

internalField   nonuniform List<scalar> 
100
(
59.4753
59.4786
59.482
59.4851
59.4883
59.4914
59.4944
59.4973
59.5001
59.5029
59.5055
59.5081
59.5105
59.5129
59.5152
59.5174
59.5195
59.5215
59.5234
59.5253
59.5271
59.5288
59.5305
59.5322
59.5339
59.5356
59.5373
59.5391
59.541
59.5429
59.545
59.5472
59.5495
59.5519
59.5546
59.5574
59.5604
59.5635
59.5669
59.5704
59.5741
59.5779
59.582
59.5861
59.5902
59.5943
59.5981
59.6012
59.6035
59.6046
59.6046
59.6034
59.6012
59.598
59.5942
59.5901
59.586
59.5818
59.5778
59.574
59.5703
59.5667
59.5634
59.5602
59.5573
59.5545
59.5518
59.5493
59.547
59.5448
59.5428
59.5408
59.539
59.5372
59.5355
59.5338
59.5321
59.5304
59.5287
59.5269
59.5251
59.5233
59.5213
59.5193
59.5172
59.515
59.5128
59.5104
59.5079
59.5054
59.5027
59.5
59.4972
59.4942
59.4912
59.4882
59.485
59.4818
59.4785
59.4751
)
;

boundaryField
{
    sides
    {
        type            zeroGradient;
    }
    walls
    {
        type            empty;
    }
}


// ************************************************************************* //
