/*--------------------------------*- C++ -*----------------------------------*\
  =========                 |
  \\      /  F ield         | OpenFOAM: The Open Source CFD Toolbox
   \\    /   O peration     | Website:  https://openfoam.org
    \\  /    A nd           | Version:  13
     \\/     M anipulation  |
\*---------------------------------------------------------------------------*/
FoamFile
{
    format      ascii;
    class       volVectorField;
    location    "0.6";
    object      U;
}
// * * * * * * * * * * * * * * * * * * * * * * * * * * * * * * * * * * * * * //

dimensions      [0 1 -1 0 0 0 0];

internalField   nonuniform List<vector> 
100
(
(-3.96351 0 0)
(-3.82519 0 0)
(-3.74342 0 0)
(-3.65557 0 0)
(-3.56816 0 0)
(-3.48106 0 0)
(-3.39434 0 0)
(-3.30807 0 0)
(-3.2223 0 0)
(-3.1371 0 0)
(-3.05251 0 0)
(-2.96859 0 0)
(-2.88539 0 0)
(-2.80294 0 0)
(-2.7213 0 0)
(-2.64047 0 0)
(-2.56049 0 0)
(-2.48135 0 0)
(-2.40306 0 0)
(-2.32559 0 0)
(-2.24892 0 0)
(-2.17301 0 0)
(-2.0978 0 0)
(-2.02321 0 0)
(-1.94917 0 0)
(-1.87559 0 0)
(-1.80238 0 0)
(-1.72941 0 0)
(-1.6566 0 0)
(-1.58384 0 0)
(-1.51101 0 0)
(-1.43802 0 0)
(-1.36478 0 0)
(-1.29118 0 0)
(-1.21716 0 0)
(-1.14263 0 0)
(-1.06756 0 0)
(-0.991882 0 0)
(-0.915587 0 0)
(-0.838661 0 0)
(-0.761105 0 0)
(-0.68294 0 0)
(-0.604213 0 0)
(-0.524897 0 0)
(-0.444909 0 0)
(-0.365833 0 0)
(-0.28039 0 0)
(-0.209028 0 0)
(-0.113616 0 0)
(-0.050824 0 0)
(0.0502987 0 0)
(0.113083 0 0)
(0.208515 0 0)
(0.279855 0 0)
(0.365321 0 0)
(0.444386 0 0)
(0.524383 0 0)
(0.603702 0 0)
(0.682434 0 0)
(0.760603 0 0)
(0.838164 0 0)
(0.915097 0 0)
(0.991397 0 0)
(1.06708 0 0)
(1.14216 0 0)
(1.21669 0 0)
(1.29072 0 0)
(1.36432 0 0)
(1.43758 0 0)
(1.51057 0 0)
(1.5834 0 0)
(1.65617 0 0)
(1.72899 0 0)
(1.80195 0 0)
(1.87517 0 0)
(1.94875 0 0)
(2.02279 0 0)
(2.09738 0 0)
(2.1726 0 0)
(2.24851 0 0)
(2.32518 0 0)
(2.40264 0 0)
(2.48093 0 0)
(2.56007 0 0)
(2.64005 0 0)
(2.72088 0 0)
(2.80252 0 0)
(2.88496 0 0)
(2.96817 0 0)
(3.05208 0 0)
(3.13667 0 0)
(3.22187 0 0)
(3.30764 0 0)
(3.39391 0 0)
(3.48062 0 0)
(3.56772 0 0)
(3.65513 0 0)
(3.74298 0 0)
(3.82475 0 0)
(3.96306 0 0)
)
;

boundaryField
{
    sides
    {
        type            zeroGradient;
    }
    walls
    {
        type            empty;
    }
}


// ************************************************************************* //
