/*--------------------------------*- C++ -*----------------------------------*\
  =========                 |
  \\      /  F ield         | OpenFOAM: The Open Source CFD Toolbox
   \\    /   O peration     | Website:  https://openfoam.org
    \\  /    A nd           | Version:  13
     \\/     M anipulation  |
\*---------------------------------------------------------------------------*/
FoamFile
{
    format      ascii;
    class       volVectorField;
    location    "0.6";
    object      U;
}
// * * * * * * * * * * * * * * * * * * * * * * * * * * * * * * * * * * * * * //

dimensions      [0 1 -1 0 0 0 0];

internalField   nonuniform List<vector> 
100
(
(49.8716 0 0)
(49.8726 0 0)
(49.8742 0 0)
(49.8758 0 0)
(49.8773 0 0)
(49.8785 0 0)
(49.8797 0 0)
(49.8809 0 0)
(49.8822 0 0)
(49.8835 0 0)
(49.8847 0 0)
(49.886 0 0)
(49.8872 0 0)
(49.8885 0 0)
(49.8897 0 0)
(49.8909 0 0)
(49.8921 0 0)
(49.8933 0 0)
(49.8945 0 0)
(49.8957 0 0)
(49.8969 0 0)
(49.898 0 0)
(49.8991 0 0)
(49.9003 0 0)
(49.9014 0 0)
(49.9025 0 0)
(49.9035 0 0)
(49.9046 0 0)
(49.9056 0 0)
(49.9067 0 0)
(49.9077 0 0)
(49.9087 0 0)
(49.9096 0 0)
(49.9106 0 0)
(49.9115 0 0)
(49.9124 0 0)
(49.9133 0 0)
(49.9142 0 0)
(49.915 0 0)
(49.9159 0 0)
(49.9167 0 0)
(49.9175 0 0)
(49.9182 0 0)
(49.919 0 0)
(49.9197 0 0)
(49.9204 0 0)
(49.9211 0 0)
(49.9218 0 0)
(49.9224 0 0)
(49.923 0 0)
(49.9236 0 0)
(49.9242 0 0)
(49.9247 0 0)
(49.9253 0 0)
(49.9258 0 0)
(49.9262 0 0)
(49.9267 0 0)
(49.9271 0 0)
(49.9275 0 0)
(49.9279 0 0)
(49.9282 0 0)
(49.9286 0 0)
(49.9289 0 0)
(49.9292 0 0)
(49.9294 0 0)
(49.9297 0 0)
(49.9299 0 0)
(49.9301 0 0)
(49.9303 0 0)
(49.9305 0 0)
(49.9306 0 0)
(49.9308 0 0)
(49.9309 0 0)
(49.931 0 0)
(49.931 0 0)
(49.9311 0 0)
(49.9311 0 0)
(49.9312 0 0)
(49.9312 0 0)
(49.9311 0 0)
(49.9311 0 0)
(49.9311 0 0)
(49.931 0 0)
(49.9309 0 0)
(49.9308 0 0)
(49.9307 0 0)
(49.9305 0 0)
(49.9304 0 0)
(49.9302 0 0)
(49.93 0 0)
(49.9298 0 0)
(49.9296 0 0)
(49.9294 0 0)
(49.9292 0 0)
(49.929 0 0)
(49.9287 0 0)
(49.9285 0 0)
(49.9283 0 0)
(49.928 0 0)
(49.9276 0 0)
)
;

boundaryField
{
    sides
    {
        type            zeroGradient;
    }
    walls
    {
        type            empty;
    }
}


// ************************************************************************* //
