/*--------------------------------*- C++ -*----------------------------------*\
  =========                 |
  \\      /  F ield         | OpenFOAM: The Open Source CFD Toolbox
   \\    /   O peration     | Website:  https://openfoam.org
    \\  /    A nd           | Version:  13
     \\/     M anipulation  |
\*---------------------------------------------------------------------------*/
FoamFile
{
    format      ascii;
    class       volScalarField;
    location    "0.005";
    object      p;
}
// * * * * * * * * * * * * * * * * * * * * * * * * * * * * * * * * * * * * * //

dimensions      [1 -1 -2 0 0 0 0];

internalField   nonuniform List<scalar> 
100
(
100000
100000
100000
100000
100000
100000
100000
100000
100000
100000
100000
100000
100000
100000
100000
100000
100000
99999.9
99999.7
99999.1
99997.2
99991.6
99976.1
99934.9
99831.9
99602.5
99145.3
98320.2
96984.1
95048.8
92518.8
89488.7
86097.7
82486.2
78770.6
75038.5
71351.3
67751.5
64267.4
60917.8
57714.5
54664.6
51771.2
49034.7
46452.6
44020
41729
39568.7
37533.7
35626.2
33855.8
32234.6
30784.3
29425.2
29432.1
29451.6
29488.2
29545
29622.4
29718.4
29828.8
29948.9
30077.9
30086.2
30081.1
30067.2
30051.1
30028.9
29997.2
29946.5
29855
29723
29566.2
29310
28959.6
28459.8
27536.4
25680.4
21176.4
12541
10420.9
10061.3
10009.1
10001.3
10000.2
10000
10000
10000
10000
10000
10000
10000
10000
10000
10000
10000
10000
10000
10000
10000
)
;

boundaryField
{
    sides
    {
        type            zeroGradient;
    }
    walls
    {
        type            empty;
    }
}


// ************************************************************************* //
