/*--------------------------------*- C++ -*----------------------------------*\
  =========                 |
  \\      /  F ield         | OpenFOAM: The Open Source CFD Toolbox
   \\    /   O peration     | Website:  https://openfoam.org
    \\  /    A nd           | Version:  13
     \\/     M anipulation  |
\*---------------------------------------------------------------------------*/
FoamFile
{
    format      ascii;
    class       surfaceScalarField;
    location    "0.005";
    object      phi;
}
// * * * * * * * * * * * * * * * * * * * * * * * * * * * * * * * * * * * * * //

dimensions      [1 0 -1 0 0 0 0];

internalField   nonuniform List<scalar> 
99
(
-8.84226e-12
-2.85194e-12
2.95763e-12
-6.51035e-13
7.79421e-12
8.05715e-11
4.3515e-10
2.03603e-09
9.22888e-09
4.03397e-08
1.72864e-07
7.14826e-07
2.8865e-06
1.12395e-05
4.2586e-05
0.000155441
0.000549985
0.00187177
0.00614901
0.0193856
0.0587086
0.170023
0.470016
1.23256
3.04733
6.78337
13.8014
25.6387
43.4669
67.4974
96.8197
129.806
164.687
199.943
234.438
267.398
298.325
326.926
353.042
376.617
397.66
416.23
432.422
446.357
458.176
468.032
476.088
482.501
487.379
490.843
493.162
494.298
494.327
493.929
493.652
493.502
493.305
492.77
491.372
488.035
480.724
466.102
440.583
402.824
360.543
329.334
315.1
308.978
306.422
304.67
301.368
299.84
298.15
291.595
288.821
283.373
265.503
223.636
115.967
17.5913
2.70865
0.411729
0.0599507
0.00875699
0.00127538
0.000184816
2.66853e-05
3.83646e-06
5.48954e-07
7.81546e-08
1.10688e-08
1.5598e-09
2.18922e-10
3.03758e-11
3.78458e-12
8.51541e-14
-1.77969e-13
1.82521e-13
1.78524e-13
)
;

boundaryField
{
    sides
    {
        type            calculated;
        value           nonuniform List<scalar> 2(8.71194e-12 2.16169e-27);
    }
    walls
    {
        type            empty;
    }
}


// ************************************************************************* //
