/*--------------------------------*- C++ -*----------------------------------*\
  =========                 |
  \\      /  F ield         | OpenFOAM: The Open Source CFD Toolbox
   \\    /   O peration     | Website:  https://openfoam.org
    \\  /    A nd           | Version:  13
     \\/     M anipulation  |
\*---------------------------------------------------------------------------*/
FoamFile
{
    format      ascii;
    class       volScalarField;
    location    "0.005";
    object      T;
}
// * * * * * * * * * * * * * * * * * * * * * * * * * * * * * * * * * * * * * //

dimensions      [0 0 0 1 0 0 0];

internalField   nonuniform List<scalar> 
100
(
348.432
348.432
348.432
348.432
348.432
348.432
348.432
348.432
348.432
348.432
348.432
348.432
348.432
348.432
348.432
348.432
348.432
348.432
348.432
348.431
348.429
348.424
348.408
348.367
348.264
348.035
347.577
346.747
345.393
343.41
340.778
337.56
333.869
329.823
325.529
321.067
316.501
311.878
307.234
302.596
297.988
293.428
288.931
284.508
280.168
275.915
271.746
267.649
263.636
259.758
255.977
252.447
249.165
247.655
247.678
247.712
247.805
248.11
248.82
250.339
253.498
259.877
272.055
293.005
324.145
358.996
382.448
392.947
397.308
398.981
399.391
399.308
398.794
397.219
394.728
391.662
387.199
379.279
358.907
300.876
282.146
279.236
278.819
278.757
278.748
278.746
278.746
278.746
278.746
278.746
278.746
278.746
278.746
278.746
278.746
278.746
278.746
278.746
278.746
278.746
)
;

boundaryField
{
    sides
    {
        type            zeroGradient;
    }
    walls
    {
        type            empty;
    }
}


// ************************************************************************* //
