/*--------------------------------*- C++ -*----------------------------------*\
  =========                 |
  \\      /  F ield         | OpenFOAM: The Open Source CFD Toolbox
   \\    /   O peration     | Website:  https://openfoam.org
    \\  /    A nd           | Version:  13
     \\/     M anipulation  |
\*---------------------------------------------------------------------------*/
FoamFile
{
    format      ascii;
    class       volVectorField;
    location    "0.005";
    object      U;
}
// * * * * * * * * * * * * * * * * * * * * * * * * * * * * * * * * * * * * * //

dimensions      [0 1 -1 0 0 0 0];

internalField   nonuniform List<vector> 
100
(
(-2.18372e-12 0 0)
(-2.18576e-12 0 0)
(7.28927e-13 0 0)
(7.28781e-13 0 0)
(-1.00098e-12 0 0)
(5.28877e-12 0 0)
(3.75865e-11 0 0)
(1.92712e-10 0 0)
(8.8252e-10 0 0)
(3.98739e-09 0 0)
(1.72545e-08 0 0)
(7.36871e-08 0 0)
(3.01577e-07 0 0)
(1.21213e-06 0 0)
(4.66943e-06 0 0)
(1.75881e-05 0 0)
(6.34795e-05 0 0)
(0.000222947 0 0)
(0.000749738 0 0)
(0.00244039 0 0)
(0.00759394 0 0)
(0.0227303 0 0)
(0.0648264 0 0)
(0.176218 0 0)
(0.449339 0 0)
(1.05178 0 0)
(2.25036 0 0)
(4.41747 0 0)
(7.94916 0 0)
(13.1546 0 0)
(20.1285 0 0)
(28.7602 0 0)
(38.779 0 0)
(49.8898 0 0)
(61.8037 0 0)
(74.3074 0 0)
(87.2195 0 0)
(100.42 0 0)
(113.805 0 0)
(127.302 0 0)
(140.847 0 0)
(154.393 0 0)
(167.897 0 0)
(181.331 0 0)
(194.672 0 0)
(207.917 0 0)
(221.083 0 0)
(234.192 0 0)
(247.223 0 0)
(260.086 0 0)
(272.63 0 0)
(284.601 0 0)
(296.119 0 0)
(302.027 0 0)
(302.372 0 0)
(302.554 0 0)
(302.472 0 0)
(302.065 0 0)
(301.357 0 0)
(300.43 0 0)
(299.41 0 0)
(298.562 0 0)
(298.243 0 0)
(297.902 0 0)
(296.722 0 0)
(294.763 0 0)
(292.425 0 0)
(290.26 0 0)
(288.574 0 0)
(287.308 0 0)
(286.156 0 0)
(284.744 0 0)
(282.716 0 0)
(279.694 0 0)
(275.174 0 0)
(268.096 0 0)
(255.93 0 0)
(231.204 0 0)
(170.721 0 0)
(67.1757 0 0)
(10.3697 0 0)
(1.55917 0 0)
(0.225599 0 0)
(0.0329672 0 0)
(0.00480511 0 0)
(0.000696701 0 0)
(0.000100675 0 0)
(1.44859e-05 0 0)
(2.07462e-06 0 0)
(2.95642e-07 0 0)
(4.19111e-08 0 0)
(5.91061e-09 0 0)
(8.30327e-10 0 0)
(1.16052e-10 0 0)
(1.52804e-11 0 0)
(1.15532e-12 0 0)
(-7.29366e-13 0 0)
(0 0 0)
(7.29366e-13 0 0)
(4.3339e-27 0 0)
)
;

boundaryField
{
    sides
    {
        type            zeroGradient;
    }
    walls
    {
        type            empty;
    }
}


// ************************************************************************* //
