/*--------------------------------*- C++ -*----------------------------------*\
  =========                 |
  \\      /  F ield         | OpenFOAM: The Open Source CFD Toolbox
   \\    /   O peration     | Website:  https://openfoam.org
    \\  /    A nd           | Version:  13
     \\/     M anipulation  |
\*---------------------------------------------------------------------------*/
FoamFile
{
    format      ascii;
    class       surfaceScalarField;
    location    "0.001";
    object      phi;
}
// * * * * * * * * * * * * * * * * * * * * * * * * * * * * * * * * * * * * * //

dimensions      [1 0 -1 0 0 0 0];

internalField   nonuniform List<scalar> 
99
(
-1.78835e-12
-5.54223e-13
6.02185e-13
-3.09086e-13
-5.58664e-13
0
5.56e-13
3.09086e-13
-6.02185e-13
2.77112e-13
3.08198e-13
-3.08198e-13
6.11955e-13
2.78e-13
-6.07958e-13
-2.65565e-13
-1.77636e-15
6.05738e-13
0
-3.10418e-13
1.77636e-15
-3.0731e-13
6.05738e-13
0
-9.00169e-13
-2.76223e-13
5.61329e-13
9.04166e-13
1.10312e-12
1.66382e-11
2.71159e-10
2.50437e-09
3.10571e-08
2.61038e-07
2.80153e-06
2.1249e-05
0.000193568
0.00130378
0.0098319
0.0575155
0.347131
1.69384
7.87617
27.3254
76.507
164.398
271.99
371.992
441.79
475.234
461.543
431.102
371.131
319.327
257.653
72.8088
12.8963
1.68676
0.227871
0.0296891
0.00372589
0.000451388
5.11387e-05
5.49617e-06
5.55118e-07
5.26403e-08
4.7685e-09
4.01347e-10
3.30846e-11
2.42084e-12
9.55347e-14
-3.4861e-14
-7.60503e-14
3.82472e-14
7.222e-14
0
-1.11022e-16
-3.41949e-14
-1.11022e-16
3.56937e-14
-3.48055e-14
-1.66533e-16
2.22045e-16
-1.11022e-16
3.54161e-14
-3.48055e-14
-1.11022e-16
2.22045e-16
-1.11022e-16
3.69149e-14
-3.69704e-14
-3.48055e-14
3.69704e-14
3.4861e-14
0
-3.69704e-14
-3.48055e-14
3.69704e-14
3.4972e-14
)
;

boundaryField
{
    sides
    {
        type            calculated;
        value           nonuniform List<scalar> 2(1.72702e-12 1.69291e-29);
    }
    walls
    {
        type            empty;
    }
}


// ************************************************************************* //
