/*--------------------------------*- C++ -*----------------------------------*\
  =========                 |
  \\      /  F ield         | OpenFOAM: The Open Source CFD Toolbox
   \\    /   O peration     | Website:  https://openfoam.org
    \\  /    A nd           | Version:  13
     \\/     M anipulation  |
\*---------------------------------------------------------------------------*/
FoamFile
{
    format      ascii;
    class       volVectorField;
    location    "0.001";
    object      U;
}
// * * * * * * * * * * * * * * * * * * * * * * * * * * * * * * * * * * * * * //

dimensions      [0 1 -1 0 0 0 0];

internalField   nonuniform List<vector> 
100
(
(-4.33243e-13 0 0)
(-4.35285e-13 0 0)
(1.45435e-13 0 0)
(1.45289e-13 0 0)
(-2.90725e-13 0 0)
(0 0 0)
(0 0 0)
(2.90725e-13 0 0)
(-1.45289e-13 0 0)
(-1.45435e-13 0 0)
(2.91454e-13 0 0)
(-1.45873e-13 0 0)
(-3.24691e-37 0 0)
(2.91454e-13 0 0)
(-1.45581e-13 0 0)
(-1.45873e-13 0 0)
(-7.14319e-36 0 0)
(-3.24691e-37 0 0)
(2.91454e-13 0 0)
(-2.91454e-13 0 0)
(1.45873e-13 0 0)
(-1.45873e-13 0 0)
(0 0 0)
(2.91454e-13 0 0)
(-2.91454e-13 0 0)
(-1.45581e-13 0 0)
(0 0 0)
(2.91162e-13 0 0)
(1.45873e-13 0 0)
(5.03699e-13 0 0)
(8.84574e-12 0 0)
(1.43376e-10 0 0)
(1.24126e-09 0 0)
(1.60475e-08 0 0)
(1.2714e-07 0 0)
(1.41847e-06 0 0)
(1.01373e-05 0 0)
(9.55939e-05 0 0)
(0.000606772 0 0)
(0.00470259 0 0)
(0.0259434 0 0)
(0.158765 0 0)
(0.718511 0 0)
(3.06213 0 0)
(9.40719 0 0)
(25.3431 0 0)
(52.1143 0 0)
(92.5125 0 0)
(140.255 0 0)
(187.884 0 0)
(240.839 0 0)
(292.706 0 0)
(326.41 0 0)
(322.271 0 0)
(269.291 0 0)
(171.226 0 0)
(50.8587 0 0)
(6.5276 0 0)
(0.877622 0 0)
(0.114477 0 0)
(0.0144352 0 0)
(0.0017676 0 0)
(0.0002019 0 0)
(2.19193e-05 0 0)
(2.2353e-06 0 0)
(2.1358e-07 0 0)
(1.95515e-08 0 0)
(1.65306e-09 0 0)
(1.37695e-10 0 0)
(1.04601e-11 0 0)
(4.54978e-13 0 0)
(-2.21414e-29 0 0)
(-1.45727e-13 0 0)
(-1.45873e-13 0 0)
(2.916e-13 0 0)
(1.3973e-28 0 0)
(-3.61507e-47 0 0)
(-3.27948e-29 0 0)
(-1.45727e-13 0 0)
(1.45727e-13 0 0)
(6.99868e-31 0 0)
(-1.45873e-13 0 0)
(1.45873e-13 0 0)
(-1.45727e-13 0 0)
(1.45727e-13 0 0)
(6.32681e-31 0 0)
(-1.45873e-13 0 0)
(1.45873e-13 0 0)
(-1.45727e-13 0 0)
(1.45727e-13 0 0)
(-9.75123e-31 0 0)
(-1.45873e-13 0 0)
(0 0 0)
(1.45873e-13 0 0)
(3.38713e-29 0 0)
(-3.61522e-29 0 0)
(-1.45873e-13 0 0)
(0 0 0)
(1.45873e-13 0 0)
(3.39405e-29 0 0)
)
;

boundaryField
{
    sides
    {
        type            zeroGradient;
    }
    walls
    {
        type            empty;
    }
}


// ************************************************************************* //
