/*--------------------------------*- C++ -*----------------------------------*\
  =========                 |
  \\      /  F ield         | OpenFOAM: The Open Source CFD Toolbox
   \\    /   O peration     | Website:  https://openfoam.org
    \\  /    A nd           | Version:  13
     \\/     M anipulation  |
\*---------------------------------------------------------------------------*/
FoamFile
{
    format      ascii;
    class       volScalarField;
    location    "0.1";
    object      p;
}
// * * * * * * * * * * * * * * * * * * * * * * * * * * * * * * * * * * * * * //

dimensions      [1 -1 -2 0 0 0 0];

internalField   nonuniform List<scalar> 
100
(
2427.1
2425.03
2422.86
2420.55
2418.09
2415.46
2412.64
2409.62
2406.37
2402.86
2399.08
2394.98
2390.55
2385.74
2380.54
2374.92
2368.88
2362.41
2355.54
2348.31
2340.78
2333.02
2325.12
2317.19
2309.33
2301.63
2294.17
2287.04
2280.28
2273.94
2268.04
2262.59
2257.6
2253.04
2248.91
2245.19
2241.85
2238.86
2236.21
2233.87
2231.82
2230.04
2228.5
2227.19
2226.1
2225.21
2224.5
2223.95
2223.64
2223.39
2223.39
2223.64
2223.95
2224.49
2225.2
2226.09
2227.18
2228.49
2230.03
2231.81
2233.86
2236.2
2238.85
2241.83
2245.17
2248.89
2253.02
2257.57
2262.56
2268.01
2273.9
2280.24
2286.99
2294.13
2301.58
2309.28
2317.14
2325.07
2332.97
2340.73
2348.26
2355.49
2362.36
2368.82
2374.87
2380.49
2385.69
2390.5
2394.94
2399.03
2402.82
2406.32
2409.57
2412.59
2415.41
2418.05
2420.51
2422.82
2424.98
2427.06
)
;

boundaryField
{
    sides
    {
        type            zeroGradient;
    }
    walls
    {
        type            empty;
    }
}


// ************************************************************************* //
