/*--------------------------------*- C++ -*----------------------------------*\
  =========                 |
  \\      /  F ield         | OpenFOAM: The Open Source CFD Toolbox
   \\    /   O peration     | Website:  https://openfoam.org
    \\  /    A nd           | Version:  13
     \\/     M anipulation  |
\*---------------------------------------------------------------------------*/
FoamFile
{
    format      ascii;
    class       volScalarField;
    location    "0.1";
    object      p;
}
// * * * * * * * * * * * * * * * * * * * * * * * * * * * * * * * * * * * * * //

dimensions      [1 -1 -2 0 0 0 0];

internalField   nonuniform List<scalar> 
100
(
10541.5
10538.5
10532.2
10524.6
10517.1
10509.6
10501.8
10493.4
10484.6
10475.4
10465.6
10455.4
10444.6
10433.3
10421.4
10409
10396
10382.5
10368.3
10353.4
10338
10321.8
10305
10287.5
10269.4
10250.5
10230.9
10210.6
10189.6
10167.9
10145.4
10122.3
10098.3
10073.6
10048.2
10022
9995.07
9967.44
9939.16
9910.26
9880.78
9850.78
9820.37
9789.59
9758.5
9727.17
9695.69
9664.12
9632.54
9601.03
9569.67
9538.52
9507.65
9477.12
9446.99
9417.31
9388.14
9359.52
9331.49
9304.07
9277.3
9251.2
9225.77
9201.04
9177
9153.65
9130.98
9109
9087.69
9067.03
9047.01
9027.61
9008.82
8990.63
8973.01
8955.95
8939.44
8923.47
8908.02
8893.09
8878.67
8864.76
8851.35
8838.46
8826.07
8814.22
8802.92
8792.2
8782.09
8772.65
8763.9
8755.89
8748.64
8742.17
8736.47
8731.54
8727.38
8723.98
8721.36
8719.52
)
;

boundaryField
{
    sides
    {
        type            zeroGradient;
    }
    walls
    {
        type            empty;
    }
}


// ************************************************************************* //
