/*--------------------------------*- C++ -*----------------------------------*\
  =========                 |
  \\      /  F ield         | OpenFOAM: The Open Source CFD Toolbox
   \\    /   O peration     | Website:  https://openfoam.org
    \\  /    A nd           | Version:  13
     \\/     M anipulation  |
\*---------------------------------------------------------------------------*/
FoamFile
{
    format      ascii;
    class       surfaceScalarField;
    location    "0.1";
    object      phi;
}
// * * * * * * * * * * * * * * * * * * * * * * * * * * * * * * * * * * * * * //

dimensions      [1 0 -1 0 0 0 0];

internalField   nonuniform List<scalar> 
99
(
38.0546
38.3303
38.608
38.8883
39.1713
39.4568
39.7443
40.0327
40.32
40.6034
40.8802
41.1488
41.4084
41.6592
41.9007
42.1322
42.3524
42.5599
42.7519
42.9295
43.092
43.2395
43.3722
43.4902
43.5941
43.6841
43.7605
43.8229
43.8714
43.9059
43.9262
43.9322
43.9235
43.9
43.8616
43.8085
43.7408
43.66
43.5688
43.4682
43.3565
43.2379
43.1158
42.9899
42.8599
42.7266
42.5908
42.4539
42.317
42.1814
42.0484
41.9191
41.7945
41.6753
41.5621
41.4554
41.3556
41.2628
41.1774
41.0994
41.029
40.9663
40.9111
40.8635
40.8233
40.7903
40.7642
40.7447
40.7313
40.7238
40.7215
40.7241
40.7309
40.7415
40.7553
40.7716
40.7901
40.8102
40.8313
40.8529
40.8747
40.8963
40.9172
40.9371
40.9557
40.9727
40.9876
41.0002
41.01
41.0169
41.0207
41.0215
41.0194
41.0151
41.009
41.0018
40.9941
40.9867
40.9794
)
;

boundaryField
{
    sides
    {
        type            calculated;
        value           nonuniform List<scalar> 2(-37.7797 40.9717);
    }
    walls
    {
        type            empty;
    }
}


// ************************************************************************* //
