/*--------------------------------*- C++ -*----------------------------------*\
  =========                 |
  \\      /  F ield         | OpenFOAM: The Open Source CFD Toolbox
   \\    /   O peration     | Website:  https://openfoam.org
    \\  /    A nd           | Version:  13
     \\/     M anipulation  |
\*---------------------------------------------------------------------------*/
FoamFile
{
    format      ascii;
    class       surfaceScalarField;
    location    "0.1";
    object      phi;
}
// * * * * * * * * * * * * * * * * * * * * * * * * * * * * * * * * * * * * * //

dimensions      [1 0 -1 0 0 0 0];

internalField   nonuniform List<scalar> 
99
(
-10.3924
-10.1367
-9.88201
-9.6288
-9.37729
-9.12791
-8.88114
-8.63751
-8.39761
-8.1621
-7.93167
-7.70707
-7.48904
-7.2783
-7.07546
-6.88104
-6.69532
-6.51828
-6.34956
-6.18836
-6.03353
-5.88355
-5.73663
-5.59087
-5.44434
-5.29522
-5.14193
-4.98313
-4.81782
-4.6453
-4.46517
-4.2773
-4.08177
-3.87881
-3.66879
-3.45215
-3.22936
-3.00097
-2.76745
-2.52937
-2.28714
-2.04141
-1.7926
-1.54117
-1.28756
-1.03217
-0.775427
-0.517697
-0.259371
-0.000818113
0.257735
0.516064
0.773798
1.03055
1.28594
1.53957
1.79101
2.03983
2.28557
2.52783
2.76593
2.99947
3.22789
3.45071
3.66739
3.87745
4.08045
4.27602
4.46393
4.6441
4.81667
4.98202
5.14086
5.29419
5.44333
5.58988
5.73566
5.88258
6.03257
6.18739
6.34857
6.51728
6.69429
6.87999
7.07438
7.27719
7.48791
7.70592
7.93049
8.16089
8.39639
8.63627
8.87988
9.12664
9.376
9.6275
9.8807
10.1353
10.3911
)
;

boundaryField
{
    sides
    {
        type            calculated;
        value           nonuniform List<scalar> 2(10.649 10.6477);
    }
    walls
    {
        type            empty;
    }
}


// ************************************************************************* //
