/*--------------------------------*- C++ -*----------------------------------*\
  =========                 |
  \\      /  F ield         | OpenFOAM: The Open Source CFD Toolbox
   \\    /   O peration     | Website:  https://openfoam.org
    \\  /    A nd           | Version:  13
     \\/     M anipulation  |
\*---------------------------------------------------------------------------*/
FoamFile
{
    format      ascii;
    class       volScalarField;
    location    "0.1";
    object      T;
}
// * * * * * * * * * * * * * * * * * * * * * * * * * * * * * * * * * * * * * //

dimensions      [0 0 0 1 0 0 0];

internalField   nonuniform List<scalar> 
100
(
85.8807
85.8448
85.8359
85.8224
85.808
85.792
85.7744
85.7546
85.7327
85.7083
85.6811
85.6507
85.6169
85.5794
85.5378
85.4919
85.4416
85.3869
85.328
85.2653
85.1993
85.1309
85.0609
84.9904
84.9206
84.8523
84.7866
84.7243
84.666
84.6122
84.5632
84.5192
84.4802
84.4461
84.4169
84.3925
84.3725
84.357
84.3455
84.3381
84.3343
84.334
84.3371
84.3431
84.3516
84.3625
84.3751
84.3885
84.4022
84.412
84.412
84.4021
84.3883
84.3749
84.3623
84.3515
84.3429
84.3369
84.3338
84.3341
84.3378
84.3453
84.3567
84.3722
84.3921
84.4166
84.4457
84.4798
84.5187
84.5627
84.6117
84.6655
84.7237
84.786
84.8517
84.9199
84.9898
85.0602
85.1302
85.1986
85.2646
85.3274
85.3863
85.441
85.4913
85.5371
85.5788
85.6163
85.6501
85.6805
85.7077
85.7322
85.7541
85.7738
85.7915
85.8074
85.8218
85.8354
85.8442
85.8801
)
;

boundaryField
{
    sides
    {
        type            zeroGradient;
    }
    walls
    {
        type            empty;
    }
}


// ************************************************************************* //
