/*--------------------------------*- C++ -*----------------------------------*\
  =========                 |
  \\      /  F ield         | OpenFOAM: The Open Source CFD Toolbox
   \\    /   O peration     | Website:  https://openfoam.org
    \\  /    A nd           | Version:  13
     \\/     M anipulation  |
\*---------------------------------------------------------------------------*/
FoamFile
{
    format      ascii;
    class       volScalarField;
    location    "0.1";
    object      T;
}
// * * * * * * * * * * * * * * * * * * * * * * * * * * * * * * * * * * * * * //

dimensions      [0 0 0 1 0 0 0];

internalField   nonuniform List<scalar> 
100
(
179.132
179.131
179.122
179.104
179.072
179.02
178.947
178.851
178.74
178.622
178.508
178.403
178.309
178.226
178.151
178.084
178.026
177.982
177.95
177.951
177.963
177.988
178.026
178.074
178.13
178.19
178.252
178.316
178.38
178.444
178.506
178.565
178.623
178.677
178.729
178.778
178.824
178.866
178.897
178.914
178.917
178.908
178.88
178.83
178.763
178.683
178.591
178.49
178.379
178.26
178.132
177.995
177.85
177.699
177.542
177.381
177.218
177.055
176.893
176.733
176.577
176.425
176.278
176.135
175.998
175.865
175.737
175.613
175.493
175.378
175.266
175.157
175.053
174.951
174.853
174.757
174.665
174.575
174.489
174.405
174.324
174.246
174.171
174.099
174.03
173.963
173.9
173.84
173.784
173.732
173.684
173.64
173.6
173.565
173.534
173.509
173.487
173.471
173.454
173.46
)
;

boundaryField
{
    sides
    {
        type            zeroGradient;
    }
    walls
    {
        type            empty;
    }
}


// ************************************************************************* //
