/*--------------------------------*- C++ -*----------------------------------*\
  =========                 |
  \\      /  F ield         | OpenFOAM: The Open Source CFD Toolbox
   \\    /   O peration     | Website:  https://openfoam.org
    \\  /    A nd           | Version:  13
     \\/     M anipulation  |
\*---------------------------------------------------------------------------*/
FoamFile
{
    format      ascii;
    class       volVectorField;
    location    "0.1";
    object      U;
}
// * * * * * * * * * * * * * * * * * * * * * * * * * * * * * * * * * * * * * //

dimensions      [0 1 -1 0 0 0 0];

internalField   nonuniform List<vector> 
100
(
(-27.0913 0 0)
(-26.1048 0 0)
(-25.4792 0 0)
(-24.8509 0 0)
(-24.227 0 0)
(-23.6085 0 0)
(-22.9968 0 0)
(-22.3932 0 0)
(-21.7994 0 0)
(-21.2171 0 0)
(-20.6481 0 0)
(-20.0946 0 0)
(-19.5583 0 0)
(-19.0412 0 0)
(-18.545 0 0)
(-18.071 0 0)
(-17.62 0 0)
(-17.1921 0 0)
(-16.7865 0 0)
(-16.4012 0 0)
(-16.0331 0 0)
(-15.6782 0 0)
(-15.3315 0 0)
(-14.9877 0 0)
(-14.6413 0 0)
(-14.2869 0 0)
(-13.9196 0 0)
(-13.5355 0 0)
(-13.1313 0 0)
(-12.7048 0 0)
(-12.2547 0 0)
(-11.7802 0 0)
(-11.2817 0 0)
(-10.7596 0 0)
(-10.215 0 0)
(-9.64912 0 0)
(-9.06359 0 0)
(-8.46011 0 0)
(-7.84014 0 0)
(-7.20526 0 0)
(-6.5571 0 0)
(-5.89704 0 0)
(-5.22632 0 0)
(-4.54769 0 0)
(-3.86474 0 0)
(-3.16897 0 0)
(-2.45574 0 0)
(-1.8286 0 0)
(-0.947863 0 0)
(-0.51039 0 0)
(0.505954 0 0)
(0.943222 0 0)
(1.82435 0 0)
(2.45116 0 0)
(3.16455 0 0)
(3.86033 0 0)
(4.54334 0 0)
(5.22201 0 0)
(5.89275 0 0)
(6.55287 0 0)
(7.2011 0 0)
(7.83606 0 0)
(8.45611 0 0)
(9.05968 0 0)
(9.64531 0 0)
(10.2113 0 0)
(10.7561 0 0)
(11.2783 0 0)
(11.7769 0 0)
(12.2515 0 0)
(12.7018 0 0)
(13.1284 0 0)
(13.5327 0 0)
(13.917 0 0)
(14.2843 0 0)
(14.6389 0 0)
(14.9854 0 0)
(15.3292 0 0)
(15.6759 0 0)
(16.0308 0 0)
(16.3989 0 0)
(16.7842 0 0)
(17.1898 0 0)
(17.6176 0 0)
(18.0685 0 0)
(18.5425 0 0)
(19.0386 0 0)
(19.5556 0 0)
(20.0918 0 0)
(20.6454 0 0)
(21.2142 0 0)
(21.7965 0 0)
(22.3903 0 0)
(22.9938 0 0)
(23.6055 0 0)
(24.224 0 0)
(24.8479 0 0)
(25.4761 0 0)
(26.1017 0 0)
(27.0882 0 0)
)
;

boundaryField
{
    sides
    {
        type            zeroGradient;
    }
    walls
    {
        type            empty;
    }
}


// ************************************************************************* //
