/*--------------------------------*- C++ -*----------------------------------*\
  =========                 |
  \\      /  F ield         | OpenFOAM: The Open Source CFD Toolbox
   \\    /   O peration     | Website:  https://openfoam.org
    \\  /    A nd           | Version:  13
     \\/     M anipulation  |
\*---------------------------------------------------------------------------*/
FoamFile
{
    format      ascii;
    class       volVectorField;
    location    "0.1";
    object      U;
}
// * * * * * * * * * * * * * * * * * * * * * * * * * * * * * * * * * * * * * //

dimensions      [0 1 -1 0 0 0 0];

internalField   nonuniform List<vector> 
100
(
(46.1821 0 0)
(46.483 0 0)
(46.9517 0 0)
(47.4016 0 0)
(47.7874 0 0)
(48.1465 0 0)
(48.5097 0 0)
(48.8791 0 0)
(49.2462 0 0)
(49.6072 0 0)
(49.9636 0 0)
(50.3171 0 0)
(50.6673 0 0)
(51.0128 0 0)
(51.3522 0 0)
(51.6851 0 0)
(52.0113 0 0)
(52.33 0 0)
(52.6404 0 0)
(52.9428 0 0)
(53.2364 0 0)
(53.52 0 0)
(53.7929 0 0)
(54.0549 0 0)
(54.3059 0 0)
(54.5456 0 0)
(54.7736 0 0)
(54.9896 0 0)
(55.193 0 0)
(55.3835 0 0)
(55.5606 0 0)
(55.724 0 0)
(55.8731 0 0)
(56.0077 0 0)
(56.1273 0 0)
(56.2318 0 0)
(56.3213 0 0)
(56.3958 0 0)
(56.4558 0 0)
(56.5025 0 0)
(56.5355 0 0)
(56.5553 0 0)
(56.5647 0 0)
(56.5653 0 0)
(56.5574 0 0)
(56.5416 0 0)
(56.5192 0 0)
(56.4917 0 0)
(56.4605 0 0)
(56.4268 0 0)
(56.3921 0 0)
(56.3577 0 0)
(56.3246 0 0)
(56.2941 0 0)
(56.2673 0 0)
(56.245 0 0)
(56.2281 0 0)
(56.2174 0 0)
(56.2134 0 0)
(56.2167 0 0)
(56.2277 0 0)
(56.2465 0 0)
(56.2733 0 0)
(56.3081 0 0)
(56.3508 0 0)
(56.4011 0 0)
(56.4587 0 0)
(56.5232 0 0)
(56.5942 0 0)
(56.671 0 0)
(56.7532 0 0)
(56.84 0 0)
(56.9309 0 0)
(57.0251 0 0)
(57.122 0 0)
(57.2207 0 0)
(57.3207 0 0)
(57.4211 0 0)
(57.5214 0 0)
(57.6207 0 0)
(57.7186 0 0)
(57.8143 0 0)
(57.9074 0 0)
(57.9972 0 0)
(58.0833 0 0)
(58.1652 0 0)
(58.2421 0 0)
(58.3135 0 0)
(58.3786 0 0)
(58.4368 0 0)
(58.4876 0 0)
(58.5305 0 0)
(58.5656 0 0)
(58.5931 0 0)
(58.6138 0 0)
(58.6282 0 0)
(58.6374 0 0)
(58.6417 0 0)
(58.6418 0 0)
(58.6279 0 0)
)
;

boundaryField
{
    sides
    {
        type            zeroGradient;
    }
    walls
    {
        type            empty;
    }
}


// ************************************************************************* //
