/*--------------------------------*- C++ -*----------------------------------*\
  =========                 |
  \\      /  F ield         | OpenFOAM: The Open Source CFD Toolbox
   \\    /   O peration     | Website:  https://openfoam.org
    \\  /    A nd           | Version:  13
     \\/     M anipulation  |
\*---------------------------------------------------------------------------*/
FoamFile
{
    format      ascii;
    class       volScalarField;
    location    "0.7";
    object      p;
}
// * * * * * * * * * * * * * * * * * * * * * * * * * * * * * * * * * * * * * //

dimensions      [1 -1 -2 0 0 0 0];

internalField   nonuniform List<scalar> 
100
(
7699.75
7699.74
7699.74
7699.73
7699.72
7699.72
7699.71
7699.71
7699.7
7699.7
7699.69
7699.69
7699.68
7699.68
7699.67
7699.67
7699.66
7699.66
7699.65
7699.65
7699.65
7699.64
7699.64
7699.63
7699.63
7699.63
7699.63
7699.62
7699.62
7699.62
7699.61
7699.61
7699.61
7699.61
7699.61
7699.61
7699.61
7699.61
7699.6
7699.6
7699.61
7699.61
7699.61
7699.61
7699.61
7699.61
7699.61
7699.61
7699.62
7699.62
7699.62
7699.63
7699.63
7699.64
7699.64
7699.64
7699.65
7699.66
7699.66
7699.67
7699.67
7699.68
7699.69
7699.69
7699.7
7699.71
7699.71
7699.72
7699.73
7699.73
7699.74
7699.75
7699.76
7699.76
7699.77
7699.78
7699.79
7699.79
7699.8
7699.81
7699.82
7699.82
7699.83
7699.84
7699.84
7699.85
7699.85
7699.86
7699.86
7699.87
7699.87
7699.88
7699.88
7699.88
7699.89
7699.89
7699.89
7699.89
7699.89
7699.89
)
;

boundaryField
{
    sides
    {
        type            zeroGradient;
    }
    walls
    {
        type            empty;
    }
}


// ************************************************************************* //
