/*--------------------------------*- C++ -*----------------------------------*\
  =========                 |
  \\      /  F ield         | OpenFOAM: The Open Source CFD Toolbox
   \\    /   O peration     | Website:  https://openfoam.org
    \\  /    A nd           | Version:  13
     \\/     M anipulation  |
\*---------------------------------------------------------------------------*/
FoamFile
{
    format      ascii;
    class       volScalarField;
    location    "0.7";
    object      p;
}
// * * * * * * * * * * * * * * * * * * * * * * * * * * * * * * * * * * * * * //

dimensions      [1 -1 -2 0 0 0 0];

internalField   nonuniform List<scalar> 
100
(
596.108
596.11
596.12
596.138
596.163
596.194
596.232
596.276
596.326
596.382
596.443
596.509
596.58
596.655
596.734
596.815
596.9
596.987
597.075
597.164
597.255
597.345
597.435
597.523
597.611
597.697
597.78
597.861
597.939
598.014
598.085
598.153
598.217
598.277
598.333
598.385
598.433
598.477
598.518
598.554
598.587
598.616
598.642
598.664
598.683
598.698
598.711
598.72
598.726
598.729
598.729
598.726
598.72
598.711
598.698
598.683
598.664
598.642
598.616
598.587
598.554
598.518
598.477
598.433
598.385
598.333
598.277
598.217
598.153
598.085
598.014
597.939
597.861
597.78
597.697
597.611
597.523
597.434
597.345
597.254
597.164
597.075
596.987
596.9
596.815
596.734
596.655
596.58
596.51
596.443
596.382
596.326
596.276
596.232
596.194
596.163
596.138
596.121
596.11
596.108
)
;

boundaryField
{
    sides
    {
        type            zeroGradient;
    }
    walls
    {
        type            empty;
    }
}


// ************************************************************************* //
