/*--------------------------------*- C++ -*----------------------------------*\
  =========                 |
  \\      /  F ield         | OpenFOAM: The Open Source CFD Toolbox
   \\    /   O peration     | Website:  https://openfoam.org
    \\  /    A nd           | Version:  13
     \\/     M anipulation  |
\*---------------------------------------------------------------------------*/
FoamFile
{
    format      ascii;
    class       surfaceScalarField;
    location    "0.7";
    object      phi;
}
// * * * * * * * * * * * * * * * * * * * * * * * * * * * * * * * * * * * * * //

dimensions      [1 0 -1 0 0 0 0];

internalField   nonuniform List<scalar> 
99
(
32.793
32.7934
32.7937
32.7941
32.7944
32.7947
32.7951
32.7954
32.7957
32.7961
32.7964
32.7968
32.7971
32.7974
32.7978
32.7981
32.7984
32.7988
32.7991
32.7994
32.7998
32.8001
32.8004
32.8008
32.8011
32.8014
32.8017
32.802
32.8024
32.8027
32.8029
32.8032
32.8035
32.8038
32.8041
32.8043
32.8046
32.8049
32.8051
32.8054
32.8056
32.8058
32.8061
32.8063
32.8065
32.8067
32.8069
32.8071
32.8073
32.8075
32.8077
32.8078
32.808
32.8082
32.8083
32.8085
32.8086
32.8088
32.8089
32.8091
32.8092
32.8093
32.8095
32.8096
32.8097
32.8098
32.8099
32.81
32.81
32.8101
32.8101
32.8102
32.8102
32.8102
32.8102
32.8102
32.8102
32.8101
32.8101
32.81
32.81
32.8099
32.8098
32.8097
32.8097
32.8096
32.8095
32.8094
32.8093
32.8092
32.8091
32.8089
32.8088
32.8087
32.8086
32.8085
32.8084
32.8084
32.8083
)
;

boundaryField
{
    sides
    {
        type            calculated;
        value           nonuniform List<scalar> 2(-32.7927 32.8082);
    }
    walls
    {
        type            empty;
    }
}


// ************************************************************************* //
