/*--------------------------------*- C++ -*----------------------------------*\
  =========                 |
  \\      /  F ield         | OpenFOAM: The Open Source CFD Toolbox
   \\    /   O peration     | Website:  https://openfoam.org
    \\  /    A nd           | Version:  13
     \\/     M anipulation  |
\*---------------------------------------------------------------------------*/
FoamFile
{
    format      ascii;
    class       volScalarField;
    location    "0.7";
    object      T;
}
// * * * * * * * * * * * * * * * * * * * * * * * * * * * * * * * * * * * * * //

dimensions      [0 0 0 1 0 0 0];

internalField   nonuniform List<scalar> 
100
(
57.6883
57.6921
57.6962
57.7004
57.7049
57.7097
57.7146
57.7198
57.7251
57.7307
57.7364
57.7424
57.7485
57.7548
57.7612
57.7678
57.7745
57.7813
57.7883
57.7953
57.8024
57.8096
57.8169
57.8242
57.8315
57.8389
57.8462
57.8536
57.8609
57.8682
57.8755
57.8828
57.8899
57.897
57.9041
57.911
57.9179
57.9246
57.9313
57.9378
57.9442
57.9504
57.9565
57.9623
57.9678
57.973
57.9774
57.9811
57.9836
57.9848
57.9848
57.9835
57.981
57.9774
57.9729
57.9677
57.9622
57.9564
57.9503
57.9441
57.9377
57.9312
57.9245
57.9178
57.9109
57.904
57.8969
57.8898
57.8827
57.8754
57.8681
57.8608
57.8535
57.8461
57.8388
57.8314
57.8241
57.8168
57.8095
57.8023
57.7952
57.7882
57.7812
57.7744
57.7677
57.7611
57.7547
57.7484
57.7423
57.7363
57.7306
57.725
57.7197
57.7145
57.7096
57.7049
57.7003
57.6961
57.692
57.6882
)
;

boundaryField
{
    sides
    {
        type            zeroGradient;
    }
    walls
    {
        type            empty;
    }
}


// ************************************************************************* //
