/*--------------------------------*- C++ -*----------------------------------*\
  =========                 |
  \\      /  F ield         | OpenFOAM: The Open Source CFD Toolbox
   \\    /   O peration     | Website:  https://openfoam.org
    \\  /    A nd           | Version:  13
     \\/     M anipulation  |
\*---------------------------------------------------------------------------*/
FoamFile
{
    format      ascii;
    class       volScalarField;
    location    "0.7";
    object      T;
}
// * * * * * * * * * * * * * * * * * * * * * * * * * * * * * * * * * * * * * //

dimensions      [0 0 0 1 0 0 0];

internalField   nonuniform List<scalar> 
100
(
162.835
162.835
162.835
162.835
162.835
162.835
162.835
162.835
162.835
162.835
162.835
162.835
162.835
162.835
162.835
162.835
162.835
162.835
162.835
162.835
162.835
162.835
162.835
162.835
162.835
162.835
162.835
162.835
162.835
162.835
162.835
162.835
162.835
162.835
162.835
162.835
162.835
162.835
162.835
162.835
162.835
162.836
162.836
162.836
162.836
162.836
162.836
162.836
162.836
162.837
162.837
162.837
162.837
162.837
162.837
162.837
162.837
162.837
162.837
162.837
162.837
162.837
162.837
162.837
162.837
162.837
162.837
162.837
162.837
162.837
162.837
162.837
162.837
162.838
162.838
162.838
162.838
162.838
162.839
162.839
162.839
162.84
162.84
162.84
162.84
162.841
162.841
162.841
162.842
162.842
162.842
162.843
162.843
162.843
162.843
162.843
162.844
162.844
162.844
162.844
)
;

boundaryField
{
    sides
    {
        type            zeroGradient;
    }
    walls
    {
        type            empty;
    }
}


// ************************************************************************* //
