/*--------------------------------*- C++ -*----------------------------------*\
  =========                 |
  \\      /  F ield         | OpenFOAM: The Open Source CFD Toolbox
   \\    /   O peration     | Website:  https://openfoam.org
    \\  /    A nd           | Version:  13
     \\/     M anipulation  |
\*---------------------------------------------------------------------------*/
FoamFile
{
    format      ascii;
    class       volVectorField;
    location    "0.7";
    object      U;
}
// * * * * * * * * * * * * * * * * * * * * * * * * * * * * * * * * * * * * * //

dimensions      [0 1 -1 0 0 0 0];

internalField   nonuniform List<vector> 
100
(
(49.8799 0 0)
(49.8803 0 0)
(49.881 0 0)
(49.8818 0 0)
(49.8824 0 0)
(49.883 0 0)
(49.8835 0 0)
(49.884 0 0)
(49.8846 0 0)
(49.8851 0 0)
(49.8857 0 0)
(49.8862 0 0)
(49.8868 0 0)
(49.8873 0 0)
(49.8879 0 0)
(49.8884 0 0)
(49.8889 0 0)
(49.8895 0 0)
(49.89 0 0)
(49.8905 0 0)
(49.891 0 0)
(49.8915 0 0)
(49.8921 0 0)
(49.8926 0 0)
(49.8931 0 0)
(49.8936 0 0)
(49.8941 0 0)
(49.8946 0 0)
(49.895 0 0)
(49.8955 0 0)
(49.896 0 0)
(49.8965 0 0)
(49.8969 0 0)
(49.8974 0 0)
(49.8978 0 0)
(49.8983 0 0)
(49.8987 0 0)
(49.8991 0 0)
(49.8995 0 0)
(49.8999 0 0)
(49.9003 0 0)
(49.9007 0 0)
(49.9011 0 0)
(49.9015 0 0)
(49.9018 0 0)
(49.9022 0 0)
(49.9025 0 0)
(49.9029 0 0)
(49.9032 0 0)
(49.9035 0 0)
(49.9038 0 0)
(49.904 0 0)
(49.9043 0 0)
(49.9046 0 0)
(49.9048 0 0)
(49.905 0 0)
(49.9053 0 0)
(49.9055 0 0)
(49.9057 0 0)
(49.9058 0 0)
(49.906 0 0)
(49.9062 0 0)
(49.9063 0 0)
(49.9064 0 0)
(49.9066 0 0)
(49.9067 0 0)
(49.9068 0 0)
(49.9069 0 0)
(49.9069 0 0)
(49.907 0 0)
(49.9071 0 0)
(49.9071 0 0)
(49.9071 0 0)
(49.9072 0 0)
(49.9072 0 0)
(49.9072 0 0)
(49.9072 0 0)
(49.9071 0 0)
(49.9071 0 0)
(49.9071 0 0)
(49.907 0 0)
(49.907 0 0)
(49.9069 0 0)
(49.9068 0 0)
(49.9068 0 0)
(49.9067 0 0)
(49.9066 0 0)
(49.9065 0 0)
(49.9064 0 0)
(49.9063 0 0)
(49.9062 0 0)
(49.9061 0 0)
(49.906 0 0)
(49.9059 0 0)
(49.9058 0 0)
(49.9056 0 0)
(49.9055 0 0)
(49.9054 0 0)
(49.9053 0 0)
(49.9051 0 0)
)
;

boundaryField
{
    sides
    {
        type            zeroGradient;
    }
    walls
    {
        type            empty;
    }
}


// ************************************************************************* //
