/*--------------------------------*- C++ -*----------------------------------*\
  =========                 |
  \\      /  F ield         | OpenFOAM: The Open Source CFD Toolbox
   \\    /   O peration     | Website:  https://openfoam.org
    \\  /    A nd           | Version:  13
     \\/     M anipulation  |
\*---------------------------------------------------------------------------*/
FoamFile
{
    format      ascii;
    class       volVectorField;
    location    "0.7";
    object      U;
}
// * * * * * * * * * * * * * * * * * * * * * * * * * * * * * * * * * * * * * //

dimensions      [0 1 -1 0 0 0 0];

internalField   nonuniform List<vector> 
100
(
(-3.33435 0 0)
(-3.2276 0 0)
(-3.16932 0 0)
(-3.10295 0 0)
(-3.03712 0 0)
(-2.97152 0 0)
(-2.9062 0 0)
(-2.84119 0 0)
(-2.7765 0 0)
(-2.71217 0 0)
(-2.64818 0 0)
(-2.58454 0 0)
(-2.52123 0 0)
(-2.45824 0 0)
(-2.39554 0 0)
(-2.33308 0 0)
(-2.27082 0 0)
(-2.2087 0 0)
(-2.14667 0 0)
(-2.08466 0 0)
(-2.0226 0 0)
(-1.96042 0 0)
(-1.89806 0 0)
(-1.83546 0 0)
(-1.77255 0 0)
(-1.70926 0 0)
(-1.64554 0 0)
(-1.58136 0 0)
(-1.51665 0 0)
(-1.45139 0 0)
(-1.38555 0 0)
(-1.31911 0 0)
(-1.25207 0 0)
(-1.18441 0 0)
(-1.11614 0 0)
(-1.04728 0 0)
(-0.977837 0 0)
(-0.907839 0 0)
(-0.837312 0 0)
(-0.766288 0 0)
(-0.694801 0 0)
(-0.622886 0 0)
(-0.550597 0 0)
(-0.477995 0 0)
(-0.40469 0 0)
(-0.33273 0 0)
(-0.254994 0 0)
(-0.189457 0 0)
(-0.104189 0 0)
(-0.044882 0 0)
(0.044352 0 0)
(0.103653 0 0)
(0.188935 0 0)
(0.254453 0 0)
(0.332205 0 0)
(0.404153 0 0)
(0.477462 0 0)
(0.550062 0 0)
(0.622349 0 0)
(0.694263 0 0)
(0.765749 0 0)
(0.836773 0 0)
(0.907299 0 0)
(0.977296 0 0)
(1.04674 0 0)
(1.1156 0 0)
(1.18386 0 0)
(1.25152 0 0)
(1.31857 0 0)
(1.385 0 0)
(1.45084 0 0)
(1.5161 0 0)
(1.58081 0 0)
(1.645 0 0)
(1.70872 0 0)
(1.77201 0 0)
(1.83492 0 0)
(1.89753 0 0)
(1.95989 0 0)
(2.02207 0 0)
(2.08413 0 0)
(2.14615 0 0)
(2.20819 0 0)
(2.27031 0 0)
(2.33258 0 0)
(2.39504 0 0)
(2.45775 0 0)
(2.52075 0 0)
(2.58407 0 0)
(2.64772 0 0)
(2.71171 0 0)
(2.77605 0 0)
(2.84074 0 0)
(2.90576 0 0)
(2.97109 0 0)
(3.0367 0 0)
(3.10254 0 0)
(3.16891 0 0)
(3.22721 0 0)
(3.33397 0 0)
)
;

boundaryField
{
    sides
    {
        type            zeroGradient;
    }
    walls
    {
        type            empty;
    }
}


// ************************************************************************* //
