/*--------------------------------*- C++ -*----------------------------------*\
  =========                 |
  \\      /  F ield         | OpenFOAM: The Open Source CFD Toolbox
   \\    /   O peration     | Website:  https://openfoam.org
    \\  /    A nd           | Version:  13
     \\/     M anipulation  |
\*---------------------------------------------------------------------------*/
FoamFile
{
    format      ascii;
    class       volScalarField;
    location    "1";
    object      p;
}
// * * * * * * * * * * * * * * * * * * * * * * * * * * * * * * * * * * * * * //

dimensions      [1 -1 -2 0 0 0 0];

internalField   nonuniform List<scalar> 
100
(
475.059
475.049
475.037
475.023
475.006
474.987
474.965
474.941
474.916
474.888
474.858
474.827
474.794
474.759
474.723
474.686
474.648
474.609
474.57
474.53
474.489
474.449
474.408
474.368
474.328
474.289
474.25
474.212
474.175
474.139
474.104
474.071
474.039
474.008
473.979
473.952
473.926
473.902
473.88
473.859
473.841
473.824
473.809
473.795
473.784
473.774
473.767
473.761
473.757
473.755
473.755
473.757
473.761
473.767
473.774
473.784
473.795
473.808
473.824
473.84
473.859
473.88
473.902
473.926
473.952
473.979
474.008
474.039
474.071
474.104
474.139
474.175
474.212
474.25
474.288
474.328
474.368
474.408
474.448
474.489
474.529
474.569
474.609
474.648
474.686
474.723
474.759
474.793
474.827
474.858
474.888
474.915
474.941
474.965
474.986
475.005
475.022
475.037
475.049
475.059
)
;

boundaryField
{
    sides
    {
        type            zeroGradient;
    }
    walls
    {
        type            empty;
    }
}


// ************************************************************************* //
