/*--------------------------------*- C++ -*----------------------------------*\
  =========                 |
  \\      /  F ield         | OpenFOAM: The Open Source CFD Toolbox
   \\    /   O peration     | Website:  https://openfoam.org
    \\  /    A nd           | Version:  13
     \\/     M anipulation  |
\*---------------------------------------------------------------------------*/
FoamFile
{
    format      ascii;
    class       surfaceScalarField;
    location    "1";
    object      phi;
}
// * * * * * * * * * * * * * * * * * * * * * * * * * * * * * * * * * * * * * //

dimensions      [1 0 -1 0 0 0 0];

internalField   nonuniform List<scalar> 
99
(
32.788
32.788
32.788
32.788
32.788
32.788
32.788
32.788
32.788
32.788
32.788
32.788
32.788
32.788
32.788
32.788
32.788
32.788
32.788
32.788
32.788
32.788
32.788
32.788
32.788
32.788
32.788
32.788
32.788
32.788
32.788
32.788
32.788
32.788
32.788
32.7881
32.7881
32.7881
32.7881
32.7881
32.7881
32.7881
32.7881
32.7881
32.7881
32.7881
32.7881
32.7881
32.7881
32.7881
32.7881
32.7881
32.7881
32.7881
32.7881
32.7881
32.7881
32.7881
32.7881
32.7881
32.7881
32.7881
32.7881
32.7881
32.7881
32.7882
32.7882
32.7882
32.7882
32.7882
32.7882
32.7882
32.7882
32.7882
32.7882
32.7882
32.7882
32.7882
32.7882
32.7882
32.7882
32.7882
32.7882
32.7883
32.7883
32.7883
32.7883
32.7883
32.7883
32.7883
32.7883
32.7883
32.7883
32.7883
32.7883
32.7884
32.7884
32.7884
32.7884
)
;

boundaryField
{
    sides
    {
        type            calculated;
        value           nonuniform List<scalar> 2(-32.788 32.7884);
    }
    walls
    {
        type            empty;
    }
}


// ************************************************************************* //
