/*--------------------------------*- C++ -*----------------------------------*\
  =========                 |
  \\      /  F ield         | OpenFOAM: The Open Source CFD Toolbox
   \\    /   O peration     | Website:  https://openfoam.org
    \\  /    A nd           | Version:  13
     \\/     M anipulation  |
\*---------------------------------------------------------------------------*/
FoamFile
{
    format      ascii;
    class       volScalarField;
    location    "1";
    object      T;
}
// * * * * * * * * * * * * * * * * * * * * * * * * * * * * * * * * * * * * * //

dimensions      [0 0 0 1 0 0 0];

internalField   nonuniform List<scalar> 
100
(
54.0857
54.0892
54.0919
54.0947
54.0974
54.1001
54.1027
54.1053
54.1079
54.1104
54.1129
54.1154
54.1179
54.1204
54.1229
54.1254
54.1279
54.1304
54.1329
54.1355
54.1381
54.1408
54.1435
54.1462
54.149
54.1519
54.1548
54.1578
54.1608
54.164
54.1671
54.1704
54.1737
54.1771
54.1805
54.184
54.1875
54.1911
54.1947
54.1983
54.202
54.2057
54.2093
54.2128
54.2161
54.2192
54.2219
54.224
54.2255
54.2262
54.2262
54.2254
54.224
54.2218
54.2192
54.2161
54.2127
54.2092
54.2055
54.2019
54.1982
54.1946
54.191
54.1874
54.1839
54.1804
54.177
54.1736
54.1703
54.167
54.1639
54.1607
54.1577
54.1547
54.1518
54.1489
54.1461
54.1434
54.1407
54.138
54.1354
54.1328
54.1303
54.1278
54.1253
54.1228
54.1203
54.1178
54.1153
54.1128
54.1103
54.1077
54.1052
54.1026
54.0999
54.0973
54.0946
54.0918
54.0891
54.0856
)
;

boundaryField
{
    sides
    {
        type            zeroGradient;
    }
    walls
    {
        type            empty;
    }
}


// ************************************************************************* //
