/*--------------------------------*- C++ -*----------------------------------*\
  =========                 |
  \\      /  F ield         | OpenFOAM: The Open Source CFD Toolbox
   \\    /   O peration     | Website:  https://openfoam.org
    \\  /    A nd           | Version:  13
     \\/     M anipulation  |
\*---------------------------------------------------------------------------*/
FoamFile
{
    format      ascii;
    class       volVectorField;
    location    "1";
    object      U;
}
// * * * * * * * * * * * * * * * * * * * * * * * * * * * * * * * * * * * * * //

dimensions      [0 1 -1 0 0 0 0];

internalField   nonuniform List<vector> 
100
(
(49.8829 0 0)
(49.8829 0 0)
(49.8829 0 0)
(49.8829 0 0)
(49.8829 0 0)
(49.8829 0 0)
(49.8829 0 0)
(49.8829 0 0)
(49.8829 0 0)
(49.8829 0 0)
(49.8829 0 0)
(49.8829 0 0)
(49.8829 0 0)
(49.8829 0 0)
(49.8829 0 0)
(49.883 0 0)
(49.883 0 0)
(49.883 0 0)
(49.883 0 0)
(49.883 0 0)
(49.883 0 0)
(49.883 0 0)
(49.883 0 0)
(49.883 0 0)
(49.883 0 0)
(49.883 0 0)
(49.883 0 0)
(49.883 0 0)
(49.883 0 0)
(49.883 0 0)
(49.883 0 0)
(49.883 0 0)
(49.883 0 0)
(49.883 0 0)
(49.883 0 0)
(49.883 0 0)
(49.883 0 0)
(49.883 0 0)
(49.883 0 0)
(49.8831 0 0)
(49.8831 0 0)
(49.8831 0 0)
(49.8831 0 0)
(49.8831 0 0)
(49.8831 0 0)
(49.8831 0 0)
(49.8831 0 0)
(49.8831 0 0)
(49.8831 0 0)
(49.8831 0 0)
(49.8831 0 0)
(49.8831 0 0)
(49.8831 0 0)
(49.8832 0 0)
(49.8832 0 0)
(49.8832 0 0)
(49.8832 0 0)
(49.8832 0 0)
(49.8832 0 0)
(49.8832 0 0)
(49.8832 0 0)
(49.8832 0 0)
(49.8832 0 0)
(49.8832 0 0)
(49.8832 0 0)
(49.8833 0 0)
(49.8833 0 0)
(49.8833 0 0)
(49.8833 0 0)
(49.8833 0 0)
(49.8833 0 0)
(49.8833 0 0)
(49.8833 0 0)
(49.8833 0 0)
(49.8834 0 0)
(49.8834 0 0)
(49.8834 0 0)
(49.8834 0 0)
(49.8834 0 0)
(49.8834 0 0)
(49.8834 0 0)
(49.8834 0 0)
(49.8834 0 0)
(49.8835 0 0)
(49.8835 0 0)
(49.8835 0 0)
(49.8835 0 0)
(49.8835 0 0)
(49.8835 0 0)
(49.8835 0 0)
(49.8835 0 0)
(49.8836 0 0)
(49.8836 0 0)
(49.8836 0 0)
(49.8836 0 0)
(49.8836 0 0)
(49.8836 0 0)
(49.8836 0 0)
(49.8837 0 0)
(49.8837 0 0)
)
;

boundaryField
{
    sides
    {
        type            zeroGradient;
    }
    walls
    {
        type            empty;
    }
}


// ************************************************************************* //
