/*--------------------------------*- C++ -*----------------------------------*\
  =========                 |
  \\      /  F ield         | OpenFOAM: The Open Source CFD Toolbox
   \\    /   O peration     | Website:  https://openfoam.org
    \\  /    A nd           | Version:  13
     \\/     M anipulation  |
\*---------------------------------------------------------------------------*/
FoamFile
{
    format      ascii;
    class       volVectorField;
    location    "1";
    object      U;
}
// * * * * * * * * * * * * * * * * * * * * * * * * * * * * * * * * * * * * * //

dimensions      [0 1 -1 0 0 0 0];

internalField   nonuniform List<vector> 
100
(
(-2.27867 0 0)
(-2.20753 0 0)
(-2.16835 0 0)
(-2.12367 0 0)
(-2.07944 0 0)
(-2.03527 0 0)
(-1.99118 0 0)
(-1.94719 0 0)
(-1.9033 0 0)
(-1.85951 0 0)
(-1.81582 0 0)
(-1.77222 0 0)
(-1.7287 0 0)
(-1.68526 0 0)
(-1.64189 0 0)
(-1.59855 0 0)
(-1.55524 0 0)
(-1.51193 0 0)
(-1.4686 0 0)
(-1.42523 0 0)
(-1.38178 0 0)
(-1.33824 0 0)
(-1.29458 0 0)
(-1.25078 0 0)
(-1.20682 0 0)
(-1.16266 0 0)
(-1.1183 0 0)
(-1.07371 0 0)
(-1.02888 0 0)
(-0.983774 0 0)
(-0.938392 0 0)
(-0.89272 0 0)
(-0.846752 0 0)
(-0.800481 0 0)
(-0.753906 0 0)
(-0.707028 0 0)
(-0.659851 0 0)
(-0.61238 0 0)
(-0.564625 0 0)
(-0.516596 0 0)
(-0.468308 0 0)
(-0.41977 0 0)
(-0.370999 0 0)
(-0.322098 0 0)
(-0.27259 0 0)
(-0.224181 0 0)
(-0.171968 0 0)
(-0.127272 0 0)
(-0.070706 0 0)
(-0.0296339 0 0)
(0.0292926 0 0)
(0.070361 0 0)
(0.126936 0 0)
(0.171622 0 0)
(0.223846 0 0)
(0.272248 0 0)
(0.321761 0 0)
(0.370662 0 0)
(0.419435 0 0)
(0.467974 0 0)
(0.516264 0 0)
(0.564294 0 0)
(0.612052 0 0)
(0.659524 0 0)
(0.706704 0 0)
(0.753584 0 0)
(0.800162 0 0)
(0.846435 0 0)
(0.892406 0 0)
(0.93808 0 0)
(0.983464 0 0)
(1.02857 0 0)
(1.07341 0 0)
(1.118 0 0)
(1.16237 0 0)
(1.20652 0 0)
(1.25049 0 0)
(1.29429 0 0)
(1.33795 0 0)
(1.38149 0 0)
(1.42494 0 0)
(1.46831 0 0)
(1.51165 0 0)
(1.55496 0 0)
(1.59827 0 0)
(1.64161 0 0)
(1.68499 0 0)
(1.72842 0 0)
(1.77194 0 0)
(1.81554 0 0)
(1.85923 0 0)
(1.90302 0 0)
(1.94691 0 0)
(1.9909 0 0)
(2.03499 0 0)
(2.07916 0 0)
(2.12339 0 0)
(2.16807 0 0)
(2.20725 0 0)
(2.27838 0 0)
)
;

boundaryField
{
    sides
    {
        type            zeroGradient;
    }
    walls
    {
        type            empty;
    }
}


// ************************************************************************* //
