/*--------------------------------*- C++ -*----------------------------------*\
  =========                 |
  \\      /  F ield         | OpenFOAM: The Open Source CFD Toolbox
   \\    /   O peration     | Website:  https://openfoam.org
    \\  /    A nd           | Version:  13
     \\/     M anipulation  |
\*---------------------------------------------------------------------------*/
FoamFile
{
    format      ascii;
    class       volScalarField;
    location    "0.006";
    object      p;
}
// * * * * * * * * * * * * * * * * * * * * * * * * * * * * * * * * * * * * * //

dimensions      [1 -1 -2 0 0 0 0];

internalField   nonuniform List<scalar> 
100
(
100000
100000
100000
100000
100000
100000
100000
100000
100000
100000
100000
100000
100000
99999.8
99999.5
99998.6
99995.8
99988.5
99969.4
99922.4
99813.1
99586.9
99160.2
98424.7
97274
95642.4
93530.6
91002.9
88159.3
85104.7
81929.8
78705.7
75484
72301.9
69185.2
66151.8
63214
60380
57655.2
55042.6
52543.6
50158.2
47885.1
45721.9
43665.1
41709.7
39849.2
38079
36398.7
34811.5
33323.9
31943.7
30688.3
29496.3
29499.5
29509.4
29529.3
29561.8
29608.6
29670.1
29744.5
29829
29920.3
30015.8
30115.3
30220.1
30223.1
30219.6
30210.4
30197.8
30183.1
30154.9
30115.2
30084.4
29990.8
29876.4
29794.9
29673
29458.6
29139.8
28692.3
28005.6
26808.1
24232.5
17510
11196.4
10201.7
10030
10004.4
10000.7
10000.1
10000
10000
10000
10000
10000
10000
10000
10000
10000
)
;

boundaryField
{
    sides
    {
        type            zeroGradient;
    }
    walls
    {
        type            empty;
    }
}


// ************************************************************************* //
