/*--------------------------------*- C++ -*----------------------------------*\
  =========                 |
  \\      /  F ield         | OpenFOAM: The Open Source CFD Toolbox
   \\    /   O peration     | Website:  https://openfoam.org
    \\  /    A nd           | Version:  13
     \\/     M anipulation  |
\*---------------------------------------------------------------------------*/
FoamFile
{
    format      ascii;
    class       surfaceScalarField;
    location    "0.006";
    object      phi;
}
// * * * * * * * * * * * * * * * * * * * * * * * * * * * * * * * * * * * * * //

dimensions      [1 0 -1 0 0 0 0];

internalField   nonuniform List<scalar> 
99
(
1.0909e-10
5.40834e-10
2.34126e-09
9.7442e-09
3.95891e-08
1.56244e-07
6.02714e-07
2.2569e-06
8.23859e-06
2.91581e-05
0.000100345
0.000334308
0.00107996
0.0033708
0.010169
0.0295636
0.0827525
0.22238
0.572284
1.4018
3.23258
6.78173
13.1261
23.4252
38.5474
58.6805
83.2262
111.048
140.85
171.468
201.986
231.742
260.283
287.312
312.644
336.176
357.858
377.683
395.673
411.871
426.338
439.147
450.378
460.122
468.47
475.52
481.366
486.087
489.76
492.456
494.229
495.241
495.552
495.062
494.58
494.142
493.883
493.792
493.829
493.844
493.5
492.103
488.4
480.312
464.809
439.136
403.044
363.302
332.823
318.255
311.871
308.238
307.687
308.279
301.049
301.307
303.091
302.014
297.457
292.018
285.244
273.805
251.238
193.774
43.9573
8.95061
1.3153
0.197502
0.0294333
0.00435124
0.000643183
9.47657e-05
1.39179e-05
2.03792e-06
2.97398e-07
4.32506e-08
6.26809e-09
9.06446e-10
1.30477e-10
)
;

boundaryField
{
    sides
    {
        type            calculated;
        value           nonuniform List<scalar> 2(-2.46655e-11 3.25408e-11);
    }
    walls
    {
        type            empty;
    }
}


// ************************************************************************* //
