/*--------------------------------*- C++ -*----------------------------------*\
  =========                 |
  \\      /  F ield         | OpenFOAM: The Open Source CFD Toolbox
   \\    /   O peration     | Website:  https://openfoam.org
    \\  /    A nd           | Version:  13
     \\/     M anipulation  |
\*---------------------------------------------------------------------------*/
FoamFile
{
    format      ascii;
    class       volScalarField;
    location    "0.006";
    object      T;
}
// * * * * * * * * * * * * * * * * * * * * * * * * * * * * * * * * * * * * * //

dimensions      [0 0 0 1 0 0 0];

internalField   nonuniform List<scalar> 
100
(
348.432
348.432
348.432
348.432
348.432
348.432
348.432
348.432
348.432
348.432
348.432
348.432
348.432
348.432
348.432
348.431
348.428
348.42
348.401
348.355
348.245
348.019
347.592
346.852
345.688
344.021
341.835
339.175
336.12
332.76
329.177
325.435
321.586
317.668
313.709
309.731
305.754
301.79
297.851
293.948
290.089
286.28
282.528
278.836
275.205
271.633
268.115
264.653
261.255
257.944
254.741
251.769
248.586
247.5
247.598
247.756
247.909
248.04
248.203
248.435
248.847
249.67
251.377
254.86
261.73
274.341
295.119
324.963
358.291
381.926
393.034
397.673
399.499
400.171
400.157
399.846
399.27
398.033
396.225
394.208
391.956
388.874
383.694
372.8
338.125
288.688
280.366
278.985
278.781
278.751
278.747
278.746
278.746
278.746
278.746
278.746
278.746
278.746
278.746
278.746
)
;

boundaryField
{
    sides
    {
        type            zeroGradient;
    }
    walls
    {
        type            empty;
    }
}


// ************************************************************************* //
