/*--------------------------------*- C++ -*----------------------------------*\
  =========                 |
  \\      /  F ield         | OpenFOAM: The Open Source CFD Toolbox
   \\    /   O peration     | Website:  https://openfoam.org
    \\  /    A nd           | Version:  13
     \\/     M anipulation  |
\*---------------------------------------------------------------------------*/
FoamFile
{
    format      ascii;
    class       volVectorField;
    location    "0.006";
    object      U;
}
// * * * * * * * * * * * * * * * * * * * * * * * * * * * * * * * * * * * * * //

dimensions      [0 1 -1 0 0 0 0];

internalField   nonuniform List<vector> 
100
(
(6.26699e-12 0 0)
(5.1245e-11 0 0)
(2.33634e-10 0 0)
(9.98283e-10 0 0)
(4.11988e-09 0 0)
(1.6654e-08 0 0)
(6.51985e-08 0 0)
(2.50207e-07 0 0)
(9.28881e-07 0 0)
(3.37012e-06 0 0)
(1.18191e-05 0 0)
(4.03851e-05 0 0)
(0.000133236 0 0)
(0.000426829 0 0)
(0.00131811 0 0)
(0.00393748 0 0)
(0.0113115 0 0)
(0.0312833 0 0)
(0.082852 0 0)
(0.209591 0 0)
(0.498187 0 0)
(1.09345 0 0)
(2.21455 0 0)
(4.1505 0 0)
(7.19856 0 0)
(11.5823 0 0)
(17.3746 0 0)
(24.4957 0 0)
(32.7533 0 0)
(41.9233 0 0)
(51.789 0 0)
(62.1772 0 0)
(72.947 0 0)
(83.9977 0 0)
(95.2474 0 0)
(106.638 0 0)
(118.119 0 0)
(129.653 0 0)
(141.207 0 0)
(152.755 0 0)
(164.273 0 0)
(175.742 0 0)
(187.149 0 0)
(198.485 0 0)
(209.748 0 0)
(220.948 0 0)
(232.1 0 0)
(243.203 0 0)
(254.223 0 0)
(265.092 0 0)
(275.712 0 0)
(285.922 0 0)
(295.849 0 0)
(300.938 0 0)
(301.209 0 0)
(301.423 0 0)
(301.522 0 0)
(301.444 0 0)
(301.143 0 0)
(300.599 0 0)
(299.837 0 0)
(298.924 0 0)
(297.973 0 0)
(297.154 0 0)
(296.697 0 0)
(296.746 0 0)
(296.735 0 0)
(296.054 0 0)
(294.794 0 0)
(293.235 0 0)
(291.754 0 0)
(290.581 0 0)
(289.721 0 0)
(289.03 0 0)
(288.272 0 0)
(287.282 0 0)
(285.953 0 0)
(284.096 0 0)
(281.445 0 0)
(277.611 0 0)
(271.905 0 0)
(262.897 0 0)
(246.971 0 0)
(212.092 0 0)
(132.055 0 0)
(34.8139 0 0)
(4.98618 0 0)
(0.742811 0 0)
(0.110548 0 0)
(0.0163328 0 0)
(0.00241593 0 0)
(0.000356153 0 0)
(5.23353e-05 0 0)
(7.66789e-06 0 0)
(1.11969e-06 0 0)
(1.62943e-07 0 0)
(2.36285e-08 0 0)
(3.41576e-09 0 0)
(4.96096e-10 0 0)
(6.59576e-11 0 0)
)
;

boundaryField
{
    sides
    {
        type            zeroGradient;
    }
    walls
    {
        type            empty;
    }
}


// ************************************************************************* //
