/*--------------------------------*- C++ -*----------------------------------*\
  =========                 |
  \\      /  F ield         | OpenFOAM: The Open Source CFD Toolbox
   \\    /   O peration     | Website:  https://openfoam.org
    \\  /    A nd           | Version:  13
     \\/     M anipulation  |
\*---------------------------------------------------------------------------*/
FoamFile
{
    format      ascii;
    class       volScalarField;
    location    "0.8";
    object      p;
}
// * * * * * * * * * * * * * * * * * * * * * * * * * * * * * * * * * * * * * //

dimensions      [1 -1 -2 0 0 0 0];

internalField   nonuniform List<scalar> 
100
(
548.703
548.687
548.67
548.651
548.629
548.605
548.577
548.547
548.514
548.478
548.439
548.397
548.353
548.305
548.255
548.201
548.145
548.087
548.026
547.962
547.897
547.83
547.761
547.69
547.619
547.546
547.474
547.401
547.328
547.256
547.185
547.115
547.047
546.981
546.916
546.855
546.796
546.74
546.688
546.639
546.594
546.553
546.516
546.483
546.455
546.431
546.412
546.398
546.388
546.383
546.383
546.388
546.398
546.412
546.431
546.455
546.483
546.516
546.553
546.594
546.639
546.688
546.741
546.796
546.855
546.917
546.981
547.047
547.116
547.186
547.257
547.329
547.401
547.474
547.547
547.619
547.691
547.761
547.83
547.898
547.963
548.026
548.088
548.146
548.202
548.255
548.306
548.353
548.398
548.44
548.479
548.514
548.548
548.578
548.605
548.63
548.652
548.671
548.688
548.703
)
;

boundaryField
{
    sides
    {
        type            zeroGradient;
    }
    walls
    {
        type            empty;
    }
}


// ************************************************************************* //
