/*--------------------------------*- C++ -*----------------------------------*\
  =========                 |
  \\      /  F ield         | OpenFOAM: The Open Source CFD Toolbox
   \\    /   O peration     | Website:  https://openfoam.org
    \\  /    A nd           | Version:  13
     \\/     M anipulation  |
\*---------------------------------------------------------------------------*/
FoamFile
{
    format      ascii;
    class       volScalarField;
    location    "0.8";
    object      p;
}
// * * * * * * * * * * * * * * * * * * * * * * * * * * * * * * * * * * * * * //

dimensions      [1 -1 -2 0 0 0 0];

internalField   nonuniform List<scalar> 
100
(
7698.01
7698.01
7698.01
7698.01
7698.01
7698
7698
7698
7698
7698
7698
7698
7698.01
7698.01
7698.01
7698.01
7698.01
7698.01
7698.01
7698.01
7698.02
7698.02
7698.02
7698.02
7698.03
7698.03
7698.03
7698.04
7698.04
7698.04
7698.05
7698.05
7698.05
7698.06
7698.06
7698.07
7698.07
7698.08
7698.08
7698.08
7698.09
7698.09
7698.1
7698.1
7698.11
7698.11
7698.12
7698.12
7698.13
7698.13
7698.14
7698.14
7698.15
7698.16
7698.16
7698.17
7698.17
7698.18
7698.18
7698.19
7698.19
7698.19
7698.2
7698.2
7698.21
7698.21
7698.22
7698.22
7698.23
7698.23
7698.23
7698.24
7698.24
7698.25
7698.25
7698.25
7698.26
7698.26
7698.26
7698.26
7698.27
7698.27
7698.27
7698.28
7698.28
7698.28
7698.28
7698.29
7698.29
7698.29
7698.29
7698.29
7698.3
7698.3
7698.3
7698.3
7698.3
7698.3
7698.3
7698.31
)
;

boundaryField
{
    sides
    {
        type            zeroGradient;
    }
    walls
    {
        type            empty;
    }
}


// ************************************************************************* //
