/*--------------------------------*- C++ -*----------------------------------*\
  =========                 |
  \\      /  F ield         | OpenFOAM: The Open Source CFD Toolbox
   \\    /   O peration     | Website:  https://openfoam.org
    \\  /    A nd           | Version:  13
     \\/     M anipulation  |
\*---------------------------------------------------------------------------*/
FoamFile
{
    format      ascii;
    class       surfaceScalarField;
    location    "0.8";
    object      phi;
}
// * * * * * * * * * * * * * * * * * * * * * * * * * * * * * * * * * * * * * //

dimensions      [1 0 -1 0 0 0 0];

internalField   nonuniform List<scalar> 
99
(
32.7892
32.7893
32.7894
32.7894
32.7895
32.7896
32.7897
32.7898
32.7899
32.7899
32.79
32.7901
32.7902
32.7902
32.7903
32.7904
32.7905
32.7905
32.7906
32.7907
32.7907
32.7908
32.7908
32.7909
32.791
32.791
32.7911
32.7912
32.7912
32.7913
32.7913
32.7914
32.7914
32.7915
32.7915
32.7916
32.7916
32.7917
32.7917
32.7918
32.7918
32.7919
32.7919
32.7919
32.792
32.792
32.7921
32.7921
32.7921
32.7922
32.7922
32.7922
32.7923
32.7923
32.7924
32.7924
32.7924
32.7925
32.7925
32.7926
32.7926
32.7927
32.7927
32.7928
32.7928
32.7929
32.7929
32.793
32.793
32.7931
32.7932
32.7933
32.7933
32.7934
32.7935
32.7935
32.7936
32.7937
32.7938
32.7938
32.7939
32.794
32.794
32.7941
32.7942
32.7942
32.7943
32.7943
32.7944
32.7945
32.7945
32.7946
32.7946
32.7947
32.7948
32.7948
32.7949
32.795
32.795
)
;

boundaryField
{
    sides
    {
        type            calculated;
        value           nonuniform List<scalar> 2(-32.7891 32.7951);
    }
    walls
    {
        type            empty;
    }
}


// ************************************************************************* //
