/*--------------------------------*- C++ -*----------------------------------*\
  =========                 |
  \\      /  F ield         | OpenFOAM: The Open Source CFD Toolbox
   \\    /   O peration     | Website:  https://openfoam.org
    \\  /    A nd           | Version:  13
     \\/     M anipulation  |
\*---------------------------------------------------------------------------*/
FoamFile
{
    format      ascii;
    class       volScalarField;
    location    "0.8";
    object      T;
}
// * * * * * * * * * * * * * * * * * * * * * * * * * * * * * * * * * * * * * //

dimensions      [0 0 0 1 0 0 0];

internalField   nonuniform List<scalar> 
100
(
162.824
162.824
162.824
162.824
162.824
162.824
162.824
162.824
162.824
162.824
162.824
162.824
162.824
162.824
162.824
162.824
162.824
162.824
162.824
162.824
162.824
162.824
162.824
162.824
162.824
162.824
162.825
162.825
162.825
162.825
162.825
162.825
162.825
162.825
162.825
162.825
162.825
162.825
162.825
162.825
162.825
162.825
162.825
162.825
162.825
162.825
162.825
162.825
162.825
162.825
162.825
162.826
162.826
162.826
162.826
162.826
162.826
162.826
162.826
162.826
162.826
162.826
162.826
162.826
162.826
162.826
162.826
162.826
162.826
162.826
162.826
162.826
162.826
162.826
162.826
162.826
162.826
162.826
162.827
162.827
162.827
162.827
162.827
162.827
162.827
162.827
162.827
162.827
162.827
162.827
162.828
162.828
162.828
162.828
162.828
162.828
162.828
162.828
162.828
162.829
)
;

boundaryField
{
    sides
    {
        type            zeroGradient;
    }
    walls
    {
        type            empty;
    }
}


// ************************************************************************* //
