/*--------------------------------*- C++ -*----------------------------------*\
  =========                 |
  \\      /  F ield         | OpenFOAM: The Open Source CFD Toolbox
   \\    /   O peration     | Website:  https://openfoam.org
    \\  /    A nd           | Version:  13
     \\/     M anipulation  |
\*---------------------------------------------------------------------------*/
FoamFile
{
    format      ascii;
    class       volScalarField;
    location    "0.8";
    object      T;
}
// * * * * * * * * * * * * * * * * * * * * * * * * * * * * * * * * * * * * * //

dimensions      [0 0 0 1 0 0 0];

internalField   nonuniform List<scalar> 
100
(
56.3466
56.3501
56.3531
56.3562
56.3591
56.362
56.3649
56.3677
56.3705
56.3733
56.3759
56.3786
56.3812
56.3838
56.3863
56.3889
56.3913
56.3938
56.3963
56.3987
56.4011
56.4036
56.406
56.4085
56.411
56.4135
56.4161
56.4187
56.4214
56.4241
56.4269
56.4298
56.4328
56.4358
56.439
56.4422
56.4455
56.4489
56.4524
56.456
56.4596
56.4633
56.4671
56.4708
56.4744
56.4779
56.4809
56.4834
56.4851
56.486
56.486
56.4851
56.4834
56.4809
56.4778
56.4743
56.4707
56.467
56.4632
56.4595
56.4559
56.4523
56.4488
56.4454
56.4421
56.4389
56.4357
56.4327
56.4297
56.4268
56.424
56.4213
56.4186
56.416
56.4134
56.4109
56.4084
56.4059
56.4035
56.401
56.3986
56.3962
56.3937
56.3913
56.3888
56.3863
56.3837
56.3811
56.3785
56.3759
56.3732
56.3704
56.3676
56.3648
56.3619
56.359
56.3561
56.353
56.3501
56.3465
)
;

boundaryField
{
    sides
    {
        type            zeroGradient;
    }
    walls
    {
        type            empty;
    }
}


// ************************************************************************* //
