/*--------------------------------*- C++ -*----------------------------------*\
  =========                 |
  \\      /  F ield         | OpenFOAM: The Open Source CFD Toolbox
   \\    /   O peration     | Website:  https://openfoam.org
    \\  /    A nd           | Version:  13
     \\/     M anipulation  |
\*---------------------------------------------------------------------------*/
FoamFile
{
    format      ascii;
    class       volVectorField;
    location    "0.8";
    object      U;
}
// * * * * * * * * * * * * * * * * * * * * * * * * * * * * * * * * * * * * * //

dimensions      [0 1 -1 0 0 0 0];

internalField   nonuniform List<vector> 
100
(
(49.8823 0 0)
(49.8824 0 0)
(49.8826 0 0)
(49.8828 0 0)
(49.8829 0 0)
(49.883 0 0)
(49.8832 0 0)
(49.8833 0 0)
(49.8834 0 0)
(49.8835 0 0)
(49.8837 0 0)
(49.8838 0 0)
(49.8839 0 0)
(49.884 0 0)
(49.8841 0 0)
(49.8843 0 0)
(49.8844 0 0)
(49.8845 0 0)
(49.8846 0 0)
(49.8847 0 0)
(49.8848 0 0)
(49.8848 0 0)
(49.8849 0 0)
(49.885 0 0)
(49.8851 0 0)
(49.8852 0 0)
(49.8853 0 0)
(49.8853 0 0)
(49.8854 0 0)
(49.8855 0 0)
(49.8855 0 0)
(49.8856 0 0)
(49.8857 0 0)
(49.8857 0 0)
(49.8858 0 0)
(49.8858 0 0)
(49.8859 0 0)
(49.886 0 0)
(49.886 0 0)
(49.8861 0 0)
(49.8861 0 0)
(49.8862 0 0)
(49.8862 0 0)
(49.8862 0 0)
(49.8863 0 0)
(49.8863 0 0)
(49.8864 0 0)
(49.8864 0 0)
(49.8865 0 0)
(49.8865 0 0)
(49.8866 0 0)
(49.8866 0 0)
(49.8866 0 0)
(49.8867 0 0)
(49.8867 0 0)
(49.8868 0 0)
(49.8868 0 0)
(49.8869 0 0)
(49.8869 0 0)
(49.887 0 0)
(49.887 0 0)
(49.8871 0 0)
(49.8872 0 0)
(49.8872 0 0)
(49.8873 0 0)
(49.8874 0 0)
(49.8874 0 0)
(49.8875 0 0)
(49.8876 0 0)
(49.8876 0 0)
(49.8877 0 0)
(49.8878 0 0)
(49.8879 0 0)
(49.888 0 0)
(49.8881 0 0)
(49.8881 0 0)
(49.8882 0 0)
(49.8883 0 0)
(49.8884 0 0)
(49.8885 0 0)
(49.8886 0 0)
(49.8887 0 0)
(49.8888 0 0)
(49.8889 0 0)
(49.889 0 0)
(49.8891 0 0)
(49.8893 0 0)
(49.8894 0 0)
(49.8895 0 0)
(49.8896 0 0)
(49.8897 0 0)
(49.8898 0 0)
(49.8899 0 0)
(49.8901 0 0)
(49.8902 0 0)
(49.8903 0 0)
(49.8904 0 0)
(49.8905 0 0)
(49.8907 0 0)
(49.8909 0 0)
)
;

boundaryField
{
    sides
    {
        type            zeroGradient;
    }
    walls
    {
        type            empty;
    }
}


// ************************************************************************* //
