/*--------------------------------*- C++ -*----------------------------------*\
  =========                 |
  \\      /  F ield         | OpenFOAM: The Open Source CFD Toolbox
   \\    /   O peration     | Website:  https://openfoam.org
    \\  /    A nd           | Version:  13
     \\/     M anipulation  |
\*---------------------------------------------------------------------------*/
FoamFile
{
    format      ascii;
    class       volVectorField;
    location    "0.8";
    object      U;
}
// * * * * * * * * * * * * * * * * * * * * * * * * * * * * * * * * * * * * * //

dimensions      [0 1 -1 0 0 0 0];

internalField   nonuniform List<vector> 
100
(
(-2.90289 0 0)
(-2.80364 0 0)
(-2.74681 0 0)
(-2.68418 0 0)
(-2.62198 0 0)
(-2.55997 0 0)
(-2.4982 0 0)
(-2.4367 0 0)
(-2.37551 0 0)
(-2.31464 0 0)
(-2.25413 0 0)
(-2.194 0 0)
(-2.13426 0 0)
(-2.07493 0 0)
(-2.01602 0 0)
(-1.95754 0 0)
(-1.89948 0 0)
(-1.84183 0 0)
(-1.78459 0 0)
(-1.72774 0 0)
(-1.67125 0 0)
(-1.61509 0 0)
(-1.55923 0 0)
(-1.50363 0 0)
(-1.44825 0 0)
(-1.39305 0 0)
(-1.33797 0 0)
(-1.28297 0 0)
(-1.228 0 0)
(-1.17302 0 0)
(-1.11797 0 0)
(-1.06282 0 0)
(-1.00752 0 0)
(-0.95204 0 0)
(-0.896345 0 0)
(-0.840404 0 0)
(-0.784195 0 0)
(-0.727701 0 0)
(-0.670913 0 0)
(-0.613829 0 0)
(-0.556451 0 0)
(-0.498784 0 0)
(-0.440859 0 0)
(-0.38271 0 0)
(-0.323979 0 0)
(-0.266395 0 0)
(-0.204062 0 0)
(-0.151707 0 0)
(-0.0831576 0 0)
(-0.0361407 0 0)
(0.0358617 0 0)
(0.0828728 0 0)
(0.151432 0 0)
(0.203774 0 0)
(0.266118 0 0)
(0.323691 0 0)
(0.382424 0 0)
(0.440569 0 0)
(0.498493 0 0)
(0.556156 0 0)
(0.613532 0 0)
(0.670613 0 0)
(0.727398 0 0)
(0.783888 0 0)
(0.840094 0 0)
(0.896032 0 0)
(0.951724 0 0)
(1.0072 0 0)
(1.06249 0 0)
(1.11764 0 0)
(1.17269 0 0)
(1.22767 0 0)
(1.28264 0 0)
(1.33763 0 0)
(1.39271 0 0)
(1.44791 0 0)
(1.50329 0 0)
(1.55888 0 0)
(1.61474 0 0)
(1.6709 0 0)
(1.72739 0 0)
(1.78424 0 0)
(1.84148 0 0)
(1.89913 0 0)
(1.95719 0 0)
(2.01567 0 0)
(2.07458 0 0)
(2.13391 0 0)
(2.19365 0 0)
(2.25378 0 0)
(2.31429 0 0)
(2.37516 0 0)
(2.43636 0 0)
(2.49786 0 0)
(2.55963 0 0)
(2.62164 0 0)
(2.68384 0 0)
(2.74648 0 0)
(2.8033 0 0)
(2.90256 0 0)
)
;

boundaryField
{
    sides
    {
        type            zeroGradient;
    }
    walls
    {
        type            empty;
    }
}


// ************************************************************************* //
