/*--------------------------------*- C++ -*----------------------------------*\
  =========                 |
  \\      /  F ield         | OpenFOAM: The Open Source CFD Toolbox
   \\    /   O peration     | Website:  https://openfoam.org
    \\  /    A nd           | Version:  13
     \\/     M anipulation  |
\*---------------------------------------------------------------------------*/
FoamFile
{
    format      ascii;
    class       surfaceScalarField;
    location    "0.002";
    object      phi;
}
// * * * * * * * * * * * * * * * * * * * * * * * * * * * * * * * * * * * * * //

dimensions      [1 0 -1 0 0 0 0];

internalField   nonuniform List<scalar> 
99
(
-3.55893e-12
-1.12621e-12
1.19371e-12
-6.05294e-13
-1.13198e-12
0
1.12887e-12
6.05294e-13
-1.19371e-12
5.63993e-13
6.05738e-13
-6.06626e-13
1.20526e-12
5.61329e-13
-1.19948e-12
-5.45342e-13
-1.77636e-15
1.19726e-12
0
-6.07958e-13
6.83897e-14
2.32037e-12
4.24607e-11
3.2906e-10
2.59585e-09
1.72871e-08
1.23021e-07
7.56577e-07
4.86852e-06
2.74261e-05
0.000157944
0.000806604
0.00410626
0.0187561
0.0831136
0.333259
1.25636
4.30421
12.5671
31.2788
66.1737
118.871
183.798
252.322
316.504
371.522
415.189
447.751
469.445
485.549
501.283
495.869
480.311
455.094
415.039
361.73
322.101
310.261
303.51
287.329
237.498
76.9287
13.7758
1.83207
0.24726
0.0318229
0.00408568
0.000524504
6.69392e-05
8.50618e-06
1.07063e-06
1.33432e-07
1.63286e-08
1.96604e-09
2.31065e-10
2.6543e-11
2.80664e-12
1.04305e-13
-1.11022e-16
7.14429e-14
-7.04992e-14
-1.66533e-16
2.22045e-16
-1.11022e-16
7.17204e-14
-7.08877e-14
-1.11022e-16
2.22045e-16
-1.11022e-16
7.26086e-14
-7.32192e-14
-7.04992e-14
7.32192e-14
7.07212e-14
0
-7.32192e-14
-7.04992e-14
7.32192e-14
7.04437e-14
)
;

boundaryField
{
    sides
    {
        type            calculated;
        value           nonuniform List<scalar> 2(3.47325e-12 1.36848e-28);
    }
    walls
    {
        type            empty;
    }
}


// ************************************************************************* //
