/*--------------------------------*- C++ -*----------------------------------*\
  =========                 |
  \\      /  F ield         | OpenFOAM: The Open Source CFD Toolbox
   \\    /   O peration     | Website:  https://openfoam.org
    \\  /    A nd           | Version:  13
     \\/     M anipulation  |
\*---------------------------------------------------------------------------*/
FoamFile
{
    format      ascii;
    class       volVectorField;
    location    "0.002";
    object      U;
}
// * * * * * * * * * * * * * * * * * * * * * * * * * * * * * * * * * * * * * //

dimensions      [0 1 -1 0 0 0 0];

internalField   nonuniform List<vector> 
100
(
(-8.70862e-13 0 0)
(-8.72904e-13 0 0)
(2.91308e-13 0 0)
(2.91162e-13 0 0)
(-5.82471e-13 0 0)
(0 0 0)
(0 0 0)
(5.82471e-13 0 0)
(-2.91162e-13 0 0)
(-2.91308e-13 0 0)
(5.832e-13 0 0)
(-2.91746e-13 0 0)
(-3.24691e-37 0 0)
(5.832e-13 0 0)
(-2.91454e-13 0 0)
(-2.91746e-13 0 0)
(-7.14319e-36 0 0)
(-3.24691e-37 0 0)
(5.832e-13 0 0)
(-5.832e-13 0 0)
(2.91746e-13 0 0)
(-2.5907e-13 0 0)
(1.59964e-12 0 0)
(2.16863e-11 0 0)
(1.5669e-10 0 0)
(1.25382e-09 0 0)
(8.06666e-09 0 0)
(5.8409e-08 0 0)
(3.47323e-07 0 0)
(2.26772e-06 0 0)
(1.23559e-05 0 0)
(7.19312e-05 0 0)
(0.000355497 0 0)
(0.00182018 0 0)
(0.00805072 0 0)
(0.0356179 0 0)
(0.138097 0 0)
(0.509912 0 0)
(1.58825 0 0)
(4.3909 0 0)
(10.242 0 0)
(20.9395 0 0)
(36.9071 0 0)
(58.1761 0 0)
(83.0636 0 0)
(110.678 0 0)
(139.381 0 0)
(168.579 0 0)
(197.81 0 0)
(226.49 0 0)
(254.695 0 0)
(283.999 0 0)
(301.338 0 0)
(305.947 0 0)
(310.615 0 0)
(311.357 0 0)
(304.614 0 0)
(291.835 0 0)
(278.33 0 0)
(263.677 0 0)
(236.134 0 0)
(165.615 0 0)
(54.1151 0 0)
(7.09198 0 0)
(0.954892 0 0)
(0.122504 0 0)
(0.0157319 0 0)
(0.00202169 0 0)
(0.000258139 0 0)
(3.285e-05 0 0)
(4.1404e-06 0 0)
(5.17479e-07 0 0)
(6.34821e-08 0 0)
(7.67349e-09 0 0)
(9.04917e-10 0 0)
(1.04559e-10 0 0)
(1.15422e-11 0 0)
(7.90924e-13 0 0)
(-2.916e-13 0 0)
(2.916e-13 0 0)
(3.49602e-30 0 0)
(-2.91746e-13 0 0)
(2.91746e-13 0 0)
(-2.916e-13 0 0)
(2.916e-13 0 0)
(2.74168e-30 0 0)
(-2.91746e-13 0 0)
(2.91746e-13 0 0)
(-2.916e-13 0 0)
(2.916e-13 0 0)
(-1.31339e-30 0 0)
(-2.91746e-13 0 0)
(0 0 0)
(2.91746e-13 0 0)
(2.74377e-28 0 0)
(-2.87293e-28 0 0)
(-2.91746e-13 0 0)
(0 0 0)
(2.91746e-13 0 0)
(2.74363e-28 0 0)
)
;

boundaryField
{
    sides
    {
        type            zeroGradient;
    }
    walls
    {
        type            empty;
    }
}


// ************************************************************************* //
