/*--------------------------------*- C++ -*----------------------------------*\
  =========                 |
  \\      /  F ield         | OpenFOAM: The Open Source CFD Toolbox
   \\    /   O peration     | Website:  https://openfoam.org
    \\  /    A nd           | Version:  13
     \\/     M anipulation  |
\*---------------------------------------------------------------------------*/
FoamFile
{
    format      ascii;
    class       volScalarField;
    location    "0.9";
    object      p;
}
// * * * * * * * * * * * * * * * * * * * * * * * * * * * * * * * * * * * * * //

dimensions      [1 -1 -2 0 0 0 0];

internalField   nonuniform List<scalar> 
100
(
506.706
506.705
506.709
506.716
506.726
506.739
506.755
506.774
506.796
506.821
506.848
506.878
506.911
506.946
506.983
507.022
507.063
507.106
507.15
507.196
507.242
507.29
507.338
507.387
507.436
507.485
507.534
507.582
507.63
507.676
507.722
507.766
507.809
507.85
507.889
507.926
507.961
507.994
508.025
508.053
508.079
508.102
508.123
508.141
508.157
508.17
508.18
508.188
508.193
508.196
508.196
508.193
508.188
508.18
508.17
508.157
508.141
508.123
508.102
508.079
508.053
508.025
507.994
507.961
507.926
507.889
507.85
507.809
507.766
507.722
507.676
507.63
507.582
507.534
507.485
507.436
507.387
507.338
507.29
507.242
507.196
507.15
507.106
507.063
507.022
506.983
506.945
506.911
506.878
506.848
506.82
506.796
506.774
506.755
506.738
506.725
506.715
506.709
506.705
506.706
)
;

boundaryField
{
    sides
    {
        type            zeroGradient;
    }
    walls
    {
        type            empty;
    }
}


// ************************************************************************* //
