/*--------------------------------*- C++ -*----------------------------------*\
  =========                 |
  \\      /  F ield         | OpenFOAM: The Open Source CFD Toolbox
   \\    /   O peration     | Website:  https://openfoam.org
    \\  /    A nd           | Version:  13
     \\/     M anipulation  |
\*---------------------------------------------------------------------------*/
FoamFile
{
    format      ascii;
    class       volScalarField;
    location    "0.9";
    object      p;
}
// * * * * * * * * * * * * * * * * * * * * * * * * * * * * * * * * * * * * * //

dimensions      [1 -1 -2 0 0 0 0];

internalField   nonuniform List<scalar> 
100
(
7697.61
7697.61
7697.61
7697.61
7697.62
7697.62
7697.62
7697.62
7697.62
7697.62
7697.62
7697.62
7697.62
7697.62
7697.62
7697.62
7697.62
7697.62
7697.62
7697.62
7697.62
7697.63
7697.63
7697.63
7697.63
7697.63
7697.63
7697.63
7697.63
7697.63
7697.63
7697.63
7697.63
7697.63
7697.63
7697.64
7697.64
7697.64
7697.64
7697.64
7697.64
7697.64
7697.64
7697.64
7697.64
7697.64
7697.64
7697.64
7697.64
7697.64
7697.64
7697.64
7697.64
7697.64
7697.65
7697.65
7697.65
7697.65
7697.65
7697.65
7697.65
7697.65
7697.65
7697.65
7697.65
7697.65
7697.65
7697.65
7697.65
7697.65
7697.65
7697.65
7697.65
7697.65
7697.65
7697.65
7697.65
7697.65
7697.65
7697.65
7697.65
7697.65
7697.65
7697.65
7697.65
7697.66
7697.66
7697.66
7697.66
7697.66
7697.66
7697.66
7697.66
7697.66
7697.66
7697.66
7697.66
7697.66
7697.66
7697.66
)
;

boundaryField
{
    sides
    {
        type            zeroGradient;
    }
    walls
    {
        type            empty;
    }
}


// ************************************************************************* //
