/*--------------------------------*- C++ -*----------------------------------*\
  =========                 |
  \\      /  F ield         | OpenFOAM: The Open Source CFD Toolbox
   \\    /   O peration     | Website:  https://openfoam.org
    \\  /    A nd           | Version:  13
     \\/     M anipulation  |
\*---------------------------------------------------------------------------*/
FoamFile
{
    format      ascii;
    class       surfaceScalarField;
    location    "0.9";
    object      phi;
}
// * * * * * * * * * * * * * * * * * * * * * * * * * * * * * * * * * * * * * //

dimensions      [1 0 -1 0 0 0 0];

internalField   nonuniform List<scalar> 
99
(
32.7883
32.7882
32.7882
32.7882
32.7882
32.7882
32.7882
32.7882
32.7882
32.7882
32.7882
32.7882
32.7882
32.7881
32.7881
32.7881
32.7881
32.7881
32.7881
32.7881
32.7881
32.7881
32.7881
32.7881
32.7881
32.7881
32.7881
32.7881
32.7881
32.7881
32.7881
32.7881
32.7881
32.7881
32.7881
32.7881
32.7882
32.7882
32.7882
32.7882
32.7882
32.7882
32.7882
32.7883
32.7883
32.7883
32.7883
32.7883
32.7883
32.7884
32.7884
32.7884
32.7884
32.7884
32.7885
32.7885
32.7885
32.7885
32.7886
32.7886
32.7886
32.7886
32.7887
32.7887
32.7887
32.7887
32.7888
32.7888
32.7888
32.7889
32.7889
32.7889
32.789
32.789
32.789
32.7891
32.7891
32.7891
32.7892
32.7892
32.7892
32.7893
32.7893
32.7894
32.7894
32.7894
32.7895
32.7895
32.7895
32.7896
32.7896
32.7896
32.7897
32.7897
32.7897
32.7898
32.7898
32.7898
32.7899
)
;

boundaryField
{
    sides
    {
        type            calculated;
        value           nonuniform List<scalar> 2(-32.7883 32.7899);
    }
    walls
    {
        type            empty;
    }
}


// ************************************************************************* //
