/*--------------------------------*- C++ -*----------------------------------*\
  =========                 |
  \\      /  F ield         | OpenFOAM: The Open Source CFD Toolbox
   \\    /   O peration     | Website:  https://openfoam.org
    \\  /    A nd           | Version:  13
     \\/     M anipulation  |
\*---------------------------------------------------------------------------*/
FoamFile
{
    format      ascii;
    class       volScalarField;
    location    "0.9";
    object      T;
}
// * * * * * * * * * * * * * * * * * * * * * * * * * * * * * * * * * * * * * //

dimensions      [0 0 0 1 0 0 0];

internalField   nonuniform List<scalar> 
100
(
55.0859
55.0896
55.093
55.0966
55.1003
55.1042
55.1081
55.1123
55.1165
55.1209
55.1254
55.13
55.1347
55.1396
55.1445
55.1496
55.1548
55.1601
55.1655
55.171
55.1766
55.1822
55.188
55.1938
55.1996
55.2056
55.2115
55.2175
55.2235
55.2295
55.2355
55.2415
55.2475
55.2534
55.2593
55.2652
55.271
55.2767
55.2823
55.2878
55.2932
55.2985
55.3036
55.3085
55.313
55.3172
55.3208
55.3236
55.3255
55.3265
55.3265
55.3255
55.3236
55.3207
55.3171
55.313
55.3084
55.3035
55.2984
55.2931
55.2877
55.2822
55.2766
55.2709
55.2651
55.2592
55.2533
55.2474
55.2414
55.2354
55.2294
55.2234
55.2174
55.2114
55.2055
55.1995
55.1937
55.1879
55.1821
55.1765
55.1709
55.1654
55.16
55.1547
55.1495
55.1444
55.1395
55.1346
55.1299
55.1252
55.1207
55.1164
55.1121
55.108
55.104
55.1002
55.0965
55.0929
55.0895
55.0858
)
;

boundaryField
{
    sides
    {
        type            zeroGradient;
    }
    walls
    {
        type            empty;
    }
}


// ************************************************************************* //
