/*--------------------------------*- C++ -*----------------------------------*\
  =========                 |
  \\      /  F ield         | OpenFOAM: The Open Source CFD Toolbox
   \\    /   O peration     | Website:  https://openfoam.org
    \\  /    A nd           | Version:  13
     \\/     M anipulation  |
\*---------------------------------------------------------------------------*/
FoamFile
{
    format      ascii;
    class       volVectorField;
    location    "0.9";
    object      U;
}
// * * * * * * * * * * * * * * * * * * * * * * * * * * * * * * * * * * * * * //

dimensions      [0 1 -1 0 0 0 0];

internalField   nonuniform List<vector> 
100
(
(49.8828 0 0)
(49.8828 0 0)
(49.8827 0 0)
(49.8827 0 0)
(49.8827 0 0)
(49.8827 0 0)
(49.8827 0 0)
(49.8827 0 0)
(49.8827 0 0)
(49.8826 0 0)
(49.8826 0 0)
(49.8826 0 0)
(49.8826 0 0)
(49.8826 0 0)
(49.8826 0 0)
(49.8826 0 0)
(49.8826 0 0)
(49.8825 0 0)
(49.8825 0 0)
(49.8825 0 0)
(49.8825 0 0)
(49.8825 0 0)
(49.8825 0 0)
(49.8825 0 0)
(49.8825 0 0)
(49.8825 0 0)
(49.8825 0 0)
(49.8825 0 0)
(49.8825 0 0)
(49.8825 0 0)
(49.8825 0 0)
(49.8825 0 0)
(49.8825 0 0)
(49.8825 0 0)
(49.8825 0 0)
(49.8825 0 0)
(49.8825 0 0)
(49.8826 0 0)
(49.8826 0 0)
(49.8826 0 0)
(49.8826 0 0)
(49.8826 0 0)
(49.8826 0 0)
(49.8827 0 0)
(49.8827 0 0)
(49.8827 0 0)
(49.8827 0 0)
(49.8828 0 0)
(49.8828 0 0)
(49.8828 0 0)
(49.8829 0 0)
(49.8829 0 0)
(49.8829 0 0)
(49.883 0 0)
(49.883 0 0)
(49.883 0 0)
(49.8831 0 0)
(49.8831 0 0)
(49.8831 0 0)
(49.8832 0 0)
(49.8832 0 0)
(49.8833 0 0)
(49.8833 0 0)
(49.8834 0 0)
(49.8834 0 0)
(49.8834 0 0)
(49.8835 0 0)
(49.8835 0 0)
(49.8836 0 0)
(49.8836 0 0)
(49.8837 0 0)
(49.8837 0 0)
(49.8838 0 0)
(49.8838 0 0)
(49.8839 0 0)
(49.8839 0 0)
(49.884 0 0)
(49.884 0 0)
(49.8841 0 0)
(49.8841 0 0)
(49.8842 0 0)
(49.8842 0 0)
(49.8843 0 0)
(49.8844 0 0)
(49.8844 0 0)
(49.8845 0 0)
(49.8845 0 0)
(49.8846 0 0)
(49.8846 0 0)
(49.8847 0 0)
(49.8847 0 0)
(49.8848 0 0)
(49.8849 0 0)
(49.8849 0 0)
(49.885 0 0)
(49.885 0 0)
(49.8851 0 0)
(49.8851 0 0)
(49.8852 0 0)
(49.8853 0 0)
)
;

boundaryField
{
    sides
    {
        type            zeroGradient;
    }
    walls
    {
        type            empty;
    }
}


// ************************************************************************* //
