/*--------------------------------*- C++ -*----------------------------------*\
  =========                 |
  \\      /  F ield         | OpenFOAM: The Open Source CFD Toolbox
   \\    /   O peration     | Website:  https://openfoam.org
    \\  /    A nd           | Version:  13
     \\/     M anipulation  |
\*---------------------------------------------------------------------------*/
FoamFile
{
    format      ascii;
    class       volVectorField;
    location    "0.9";
    object      U;
}
// * * * * * * * * * * * * * * * * * * * * * * * * * * * * * * * * * * * * * //

dimensions      [0 1 -1 0 0 0 0];

internalField   nonuniform List<vector> 
100
(
(-2.53932 0 0)
(-2.45291 0 0)
(-2.40665 0 0)
(-2.35309 0 0)
(-2.30009 0 0)
(-2.24726 0 0)
(-2.19465 0 0)
(-2.14225 0 0)
(-2.09011 0 0)
(-2.03823 0 0)
(-1.98664 0 0)
(-1.93533 0 0)
(-1.88433 0 0)
(-1.83363 0 0)
(-1.78322 0 0)
(-1.73309 0 0)
(-1.68324 0 0)
(-1.63364 0 0)
(-1.58428 0 0)
(-1.53513 0 0)
(-1.48617 0 0)
(-1.43735 0 0)
(-1.38866 0 0)
(-1.34006 0 0)
(-1.29151 0 0)
(-1.24298 0 0)
(-1.19443 0 0)
(-1.14583 0 0)
(-1.09715 0 0)
(-1.04834 0 0)
(-0.999388 0 0)
(-0.950259 0 0)
(-0.900928 0 0)
(-0.851375 0 0)
(-0.801583 0 0)
(-0.751539 0 0)
(-0.701233 0 0)
(-0.650662 0 0)
(-0.599824 0 0)
(-0.548724 0 0)
(-0.49737 0 0)
(-0.445769 0 0)
(-0.393934 0 0)
(-0.341976 0 0)
(-0.289361 0 0)
(-0.238009 0 0)
(-0.182269 0 0)
(-0.135352 0 0)
(-0.0745608 0 0)
(-0.0317928 0 0)
(0.0315988 0 0)
(0.0743619 0 0)
(0.135163 0 0)
(0.182067 0 0)
(0.237819 0 0)
(0.289163 0 0)
(0.341782 0 0)
(0.393739 0 0)
(0.445574 0 0)
(0.497175 0 0)
(0.54853 0 0)
(0.59963 0 0)
(0.650467 0 0)
(0.701038 0 0)
(0.751344 0 0)
(0.801388 0 0)
(0.851179 0 0)
(0.900731 0 0)
(0.950061 0 0)
(0.999189 0 0)
(1.04814 0 0)
(1.09694 0 0)
(1.14563 0 0)
(1.19422 0 0)
(1.24277 0 0)
(1.2913 0 0)
(1.33984 0 0)
(1.38845 0 0)
(1.43713 0 0)
(1.48594 0 0)
(1.53491 0 0)
(1.58405 0 0)
(1.63341 0 0)
(1.683 0 0)
(1.73285 0 0)
(1.78297 0 0)
(1.83338 0 0)
(1.88408 0 0)
(1.93508 0 0)
(1.98637 0 0)
(2.03797 0 0)
(2.08984 0 0)
(2.14198 0 0)
(2.19437 0 0)
(2.24698 0 0)
(2.2998 0 0)
(2.3528 0 0)
(2.40636 0 0)
(2.45261 0 0)
(2.53902 0 0)
)
;

boundaryField
{
    sides
    {
        type            zeroGradient;
    }
    walls
    {
        type            empty;
    }
}


// ************************************************************************* //
