/*--------------------------------*- C++ -*----------------------------------*\
  =========                 |
  \\      /  F ield         | OpenFOAM: The Open Source CFD Toolbox
   \\    /   O peration     | Website:  https://openfoam.org
    \\  /    A nd           | Version:  13
     \\/     M anipulation  |
\*---------------------------------------------------------------------------*/
FoamFile
{
    format      ascii;
    class       surfaceScalarField;
    location    "0.003";
    object      phi;
}
// * * * * * * * * * * * * * * * * * * * * * * * * * * * * * * * * * * * * * //

dimensions      [1 0 -1 0 0 0 0];

internalField   nonuniform List<scalar> 
99
(
-5.32374e-12
-1.70086e-12
1.78257e-12
-9.07274e-13
-1.70841e-12
0
1.70353e-12
9.07274e-13
-1.78257e-12
8.47322e-13
9.00613e-13
-9.02389e-13
1.79678e-12
8.46434e-13
-1.53788e-12
5.40812e-12
6.43028e-11
4.28795e-10
2.63398e-09
1.47198e-08
8.28514e-08
4.32043e-07
2.24818e-06
1.0881e-05
5.19943e-05
0.000231911
0.00100975
0.00411445
0.0161688
0.0595193
0.208496
0.68285
2.0863
5.79834
14.0673
30.1467
56.8799
94.8035
141.329
192.247
243.427
291.835
335.568
373.698
405.841
432.055
452.54
467.852
478.499
484.4
487.026
492.491
489.199
485.697
480.382
467.762
441.972
401.909
354.534
323.646
311.239
306.482
303.351
297.719
286.255
265.221
209.929
49.1816
9.77213
1.35447
0.191445
0.0264955
0.00361225
0.000489127
6.55543e-05
8.70155e-06
1.14542e-06
1.49563e-07
1.93806e-08
2.49463e-09
3.19343e-10
4.08133e-11
4.8137e-12
3.57991e-13
1.08247e-13
-1.06526e-13
-1.11022e-16
2.22045e-16
-1.11022e-16
1.08469e-13
-1.09857e-13
-1.06137e-13
1.09857e-13
1.06692e-13
0
-1.09857e-13
-1.06137e-13
1.09857e-13
1.06359e-13
)
;

boundaryField
{
    sides
    {
        type            calculated;
        value           nonuniform List<scalar> 2(5.21948e-12 4.64342e-28);
    }
    walls
    {
        type            empty;
    }
}


// ************************************************************************* //
