/*--------------------------------*- C++ -*----------------------------------*\
  =========                 |
  \\      /  F ield         | OpenFOAM: The Open Source CFD Toolbox
   \\    /   O peration     | Website:  https://openfoam.org
    \\  /    A nd           | Version:  13
     \\/     M anipulation  |
\*---------------------------------------------------------------------------*/
FoamFile
{
    format      ascii;
    class       volVectorField;
    location    "0.003";
    object      U;
}
// * * * * * * * * * * * * * * * * * * * * * * * * * * * * * * * * * * * * * //

dimensions      [0 1 -1 0 0 0 0];

internalField   nonuniform List<vector> 
100
(
(-1.30848e-12 0 0)
(-1.31052e-12 0 0)
(4.37181e-13 0 0)
(4.37035e-13 0 0)
(-8.74217e-13 0 0)
(0 0 0)
(0 0 0)
(8.74217e-13 0 0)
(-4.37035e-13 0 0)
(-4.37181e-13 0 0)
(8.74946e-13 0 0)
(-4.37619e-13 0 0)
(-3.24691e-37 0 0)
(8.74946e-13 0 0)
(-4.37327e-13 0 0)
(-2.85473e-13 0 0)
(3.31963e-12 0 0)
(3.1441e-11 0 0)
(1.98286e-10 0 0)
(1.21339e-09 0 0)
(6.6392e-09 0 0)
(3.75748e-08 0 0)
(1.91952e-07 0 0)
(1.00238e-06 0 0)
(4.75281e-06 0 0)
(2.27358e-05 0 0)
(9.93509e-05 0 0)
(0.000431716 0 0)
(0.00172331 0 0)
(0.00673188 0 0)
(0.0242605 0 0)
(0.0839543 0 0)
(0.26788 0 0)
(0.784906 0 0)
(2.02947 0 0)
(4.69832 0 0)
(9.61936 0 0)
(17.6159 0 0)
(28.9097 0 0)
(43.3328 0 0)
(60.1608 0 0)
(78.8143 0 0)
(98.5745 0 0)
(119.091 0 0)
(139.945 0 0)
(160.937 0 0)
(181.877 0 0)
(202.652 0 0)
(223.294 0 0)
(243.846 0 0)
(263.711 0 0)
(282.495 0 0)
(298.477 0 0)
(304.626 0 0)
(303.36 0 0)
(303.283 0 0)
(303.787 0 0)
(303.542 0 0)
(301.506 0 0)
(297.43 0 0)
(291.861 0 0)
(286.137 0 0)
(281.341 0 0)
(276.527 0 0)
(269.138 0 0)
(254.797 0 0)
(221.485 0 0)
(141.635 0 0)
(38.321 0 0)
(5.1846 0 0)
(0.729371 0 0)
(0.100918 0 0)
(0.0137692 0 0)
(0.00186819 0 0)
(0.000250806 0 0)
(3.33422e-05 0 0)
(4.39551e-06 0 0)
(5.74735e-07 0 0)
(7.45659e-08 0 0)
(9.60927e-09 0 0)
(1.23036e-09 0 0)
(1.57635e-10 0 0)
(1.97877e-11 0 0)
(1.18493e-12 0 0)
(4.4433e-13 0 0)
(7.13238e-30 0 0)
(-4.3762e-13 0 0)
(4.3762e-13 0 0)
(-4.37474e-13 0 0)
(4.37474e-13 0 0)
(-1.07812e-29 0 0)
(-4.3762e-13 0 0)
(0 0 0)
(4.3762e-13 0 0)
(9.31466e-28 0 0)
(-9.66854e-28 0 0)
(-4.3762e-13 0 0)
(0 0 0)
(4.3762e-13 0 0)
(9.30943e-28 0 0)
)
;

boundaryField
{
    sides
    {
        type            zeroGradient;
    }
    walls
    {
        type            empty;
    }
}


// ************************************************************************* //
