/*--------------------------------*- C++ -*----------------------------------*\
  =========                 |
  \\      /  F ield         | OpenFOAM: The Open Source CFD Toolbox
   \\    /   O peration     | Website:  https://openfoam.org
    \\  /    A nd           | Version:  13
     \\/     M anipulation  |
\*---------------------------------------------------------------------------*/
FoamFile
{
    format      ascii;
    class       volScalarField;
    location    "0.5";
    object      p;
}
// * * * * * * * * * * * * * * * * * * * * * * * * * * * * * * * * * * * * * //

dimensions      [1 -1 -2 0 0 0 0];

internalField   nonuniform List<scalar> 
100
(
744.534
744.53
744.541
744.565
744.6
744.649
744.709
744.782
744.866
744.962
745.069
745.188
745.318
745.459
745.61
745.77
745.939
746.117
746.301
746.492
746.688
746.887
747.089
747.292
747.495
747.696
747.895
748.089
748.278
748.461
748.637
748.804
748.963
749.113
749.253
749.383
749.503
749.614
749.714
749.804
749.885
749.957
750.02
750.074
750.12
750.158
750.188
750.21
750.225
750.231
750.231
750.225
750.21
750.188
750.158
750.12
750.074
750.02
749.957
749.886
749.805
749.714
749.614
749.504
749.383
749.253
749.113
748.964
748.805
748.637
748.461
748.279
748.089
747.895
747.696
747.495
747.292
747.089
746.887
746.688
746.492
746.301
746.116
745.939
745.77
745.609
745.458
745.318
745.188
745.069
744.961
744.865
744.781
744.708
744.648
744.599
744.564
744.54
744.529
744.533
)
;

boundaryField
{
    sides
    {
        type            zeroGradient;
    }
    walls
    {
        type            empty;
    }
}


// ************************************************************************* //
