/*--------------------------------*- C++ -*----------------------------------*\
  =========                 |
  \\      /  F ield         | OpenFOAM: The Open Source CFD Toolbox
   \\    /   O peration     | Website:  https://openfoam.org
    \\  /    A nd           | Version:  13
     \\/     M anipulation  |
\*---------------------------------------------------------------------------*/
FoamFile
{
    format      ascii;
    class       volScalarField;
    location    "0.5";
    object      p;
}
// * * * * * * * * * * * * * * * * * * * * * * * * * * * * * * * * * * * * * //

dimensions      [1 -1 -2 0 0 0 0];

internalField   nonuniform List<scalar> 
100
(
7719.78
7719.79
7719.8
7719.8
7719.8
7719.78
7719.76
7719.73
7719.69
7719.64
7719.59
7719.54
7719.47
7719.4
7719.32
7719.24
7719.16
7719.07
7718.97
7718.87
7718.77
7718.66
7718.55
7718.43
7718.32
7718.2
7718.07
7717.95
7717.83
7717.7
7717.57
7717.44
7717.31
7717.18
7717.05
7716.93
7716.8
7716.67
7716.54
7716.42
7716.29
7716.17
7716.04
7715.92
7715.8
7715.69
7715.57
7715.46
7715.35
7715.24
7715.13
7715.03
7714.93
7714.83
7714.73
7714.64
7714.55
7714.46
7714.37
7714.29
7714.2
7714.13
7714.05
7713.98
7713.91
7713.84
7713.77
7713.71
7713.65
7713.59
7713.54
7713.49
7713.44
7713.39
7713.35
7713.31
7713.27
7713.24
7713.21
7713.18
7713.15
7713.13
7713.11
7713.09
7713.07
7713.06
7713.05
7713.04
7713.04
7713.04
7713.04
7713.04
7713.05
7713.06
7713.07
7713.08
7713.1
7713.12
7713.14
7713.16
)
;

boundaryField
{
    sides
    {
        type            zeroGradient;
    }
    walls
    {
        type            empty;
    }
}


// ************************************************************************* //
