/*--------------------------------*- C++ -*----------------------------------*\
  =========                 |
  \\      /  F ield         | OpenFOAM: The Open Source CFD Toolbox
   \\    /   O peration     | Website:  https://openfoam.org
    \\  /    A nd           | Version:  13
     \\/     M anipulation  |
\*---------------------------------------------------------------------------*/
FoamFile
{
    format      ascii;
    class       surfaceScalarField;
    location    "0.5";
    object      phi;
}
// * * * * * * * * * * * * * * * * * * * * * * * * * * * * * * * * * * * * * //

dimensions      [1 0 -1 0 0 0 0];

internalField   nonuniform List<scalar> 
99
(
32.8308
32.8297
32.8286
32.8275
32.8265
32.8255
32.8245
32.8236
32.8227
32.8218
32.821
32.8202
32.8194
32.8186
32.8179
32.8172
32.8165
32.8159
32.8153
32.8148
32.8142
32.8138
32.8133
32.8129
32.8126
32.8123
32.812
32.8118
32.8116
32.8115
32.8114
32.8113
32.8113
32.8114
32.8115
32.8116
32.8118
32.8121
32.8124
32.8128
32.8133
32.8138
32.8144
32.8151
32.8159
32.8167
32.8176
32.8185
32.8194
32.8204
32.8214
32.8224
32.8234
32.8243
32.8254
32.8264
32.8275
32.8285
32.8296
32.8307
32.8318
32.8329
32.8341
32.8353
32.8366
32.8379
32.8393
32.8406
32.8421
32.8436
32.8451
32.8467
32.8483
32.85
32.8517
32.8535
32.8554
32.8573
32.8592
32.8614
32.8636
32.8659
32.8683
32.8708
32.8734
32.8761
32.8789
32.8818
32.8847
32.8876
32.8904
32.8931
32.8958
32.8985
32.9011
32.9037
32.9061
32.9085
32.9107
)
;

boundaryField
{
    sides
    {
        type            calculated;
        value           nonuniform List<scalar> 2(-32.832 32.9129);
    }
    walls
    {
        type            empty;
    }
}


// ************************************************************************* //
