/*--------------------------------*- C++ -*----------------------------------*\
  =========                 |
  \\      /  F ield         | OpenFOAM: The Open Source CFD Toolbox
   \\    /   O peration     | Website:  https://openfoam.org
    \\  /    A nd           | Version:  13
     \\/     M anipulation  |
\*---------------------------------------------------------------------------*/
FoamFile
{
    format      ascii;
    class       volScalarField;
    location    "0.5";
    object      T;
}
// * * * * * * * * * * * * * * * * * * * * * * * * * * * * * * * * * * * * * //

dimensions      [0 0 0 1 0 0 0];

internalField   nonuniform List<scalar> 
100
(
61.4473
61.4503
61.4554
61.4603
61.4657
61.4713
61.4773
61.4836
61.4902
61.4972
61.5045
61.5121
61.52
61.5282
61.5367
61.5455
61.5546
61.5639
61.5735
61.5833
61.5933
61.6035
61.6138
61.6242
61.6348
61.6454
61.656
61.6667
61.6773
61.6878
61.6984
61.7088
61.7191
61.7292
61.7393
61.7491
61.7588
61.7683
61.7776
61.7866
61.7955
61.804
61.8123
61.8203
61.828
61.8351
61.8415
61.8468
61.8506
61.8525
61.8525
61.8505
61.8467
61.8414
61.835
61.8279
61.8202
61.8122
61.8039
61.7954
61.7865
61.7775
61.7682
61.7587
61.749
61.7392
61.7291
61.719
61.7087
61.6983
61.6877
61.6772
61.6666
61.6559
61.6453
61.6347
61.6241
61.6137
61.6034
61.5932
61.5832
61.5734
61.5638
61.5545
61.5454
61.5366
61.5281
61.5199
61.5119
61.5044
61.4971
61.4901
61.4835
61.4772
61.4712
61.4655
61.4602
61.4553
61.4502
61.4471
)
;

boundaryField
{
    sides
    {
        type            zeroGradient;
    }
    walls
    {
        type            empty;
    }
}


// ************************************************************************* //
