/*--------------------------------*- C++ -*----------------------------------*\
  =========                 |
  \\      /  F ield         | OpenFOAM: The Open Source CFD Toolbox
   \\    /   O peration     | Website:  https://openfoam.org
    \\  /    A nd           | Version:  13
     \\/     M anipulation  |
\*---------------------------------------------------------------------------*/
FoamFile
{
    format      ascii;
    class       volScalarField;
    location    "0.5";
    object      T;
}
// * * * * * * * * * * * * * * * * * * * * * * * * * * * * * * * * * * * * * //

dimensions      [0 0 0 1 0 0 0];

internalField   nonuniform List<scalar> 
100
(
162.964
162.964
162.964
162.964
162.963
162.963
162.963
162.962
162.962
162.961
162.961
162.961
162.96
162.96
162.96
162.96
162.96
162.96
162.96
162.96
162.96
162.96
162.96
162.959
162.959
162.959
162.959
162.959
162.959
162.959
162.959
162.959
162.959
162.959
162.958
162.958
162.958
162.958
162.957
162.957
162.956
162.955
162.954
162.953
162.952
162.95
162.949
162.948
162.946
162.945
162.944
162.943
162.943
162.942
162.942
162.942
162.942
162.943
162.943
162.944
162.945
162.946
162.947
162.948
162.949
162.951
162.952
162.953
162.954
162.956
162.957
162.958
162.96
162.961
162.963
162.964
162.965
162.966
162.967
162.968
162.968
162.968
162.968
162.967
162.966
162.965
162.964
162.962
162.961
162.959
162.957
162.957
162.956
162.956
162.957
162.957
162.958
162.96
162.962
162.967
)
;

boundaryField
{
    sides
    {
        type            zeroGradient;
    }
    walls
    {
        type            empty;
    }
}


// ************************************************************************* //
