/*--------------------------------*- C++ -*----------------------------------*\
  =========                 |
  \\      /  F ield         | OpenFOAM: The Open Source CFD Toolbox
   \\    /   O peration     | Website:  https://openfoam.org
    \\  /    A nd           | Version:  13
     \\/     M anipulation  |
\*---------------------------------------------------------------------------*/
FoamFile
{
    format      ascii;
    class       volVectorField;
    location    "0.5";
    object      U;
}
// * * * * * * * * * * * * * * * * * * * * * * * * * * * * * * * * * * * * * //

dimensions      [0 1 -1 0 0 0 0];

internalField   nonuniform List<vector> 
100
(
(49.8494 0 0)
(49.8482 0 0)
(49.8457 0 0)
(49.8432 0 0)
(49.8412 0 0)
(49.8396 0 0)
(49.8382 0 0)
(49.837 0 0)
(49.8357 0 0)
(49.8346 0 0)
(49.8335 0 0)
(49.8325 0 0)
(49.8316 0 0)
(49.8308 0 0)
(49.8302 0 0)
(49.8296 0 0)
(49.8291 0 0)
(49.8287 0 0)
(49.8283 0 0)
(49.8281 0 0)
(49.828 0 0)
(49.8279 0 0)
(49.8279 0 0)
(49.828 0 0)
(49.8282 0 0)
(49.8285 0 0)
(49.8288 0 0)
(49.8292 0 0)
(49.8297 0 0)
(49.8303 0 0)
(49.8309 0 0)
(49.8316 0 0)
(49.8323 0 0)
(49.8332 0 0)
(49.8341 0 0)
(49.835 0 0)
(49.836 0 0)
(49.8371 0 0)
(49.8383 0 0)
(49.8395 0 0)
(49.8407 0 0)
(49.842 0 0)
(49.8434 0 0)
(49.8449 0 0)
(49.8464 0 0)
(49.8479 0 0)
(49.8495 0 0)
(49.8512 0 0)
(49.853 0 0)
(49.8548 0 0)
(49.8566 0 0)
(49.8585 0 0)
(49.8605 0 0)
(49.8626 0 0)
(49.8647 0 0)
(49.8668 0 0)
(49.8691 0 0)
(49.8714 0 0)
(49.8737 0 0)
(49.8761 0 0)
(49.8786 0 0)
(49.8811 0 0)
(49.8837 0 0)
(49.8863 0 0)
(49.8891 0 0)
(49.8918 0 0)
(49.8946 0 0)
(49.8975 0 0)
(49.9005 0 0)
(49.9035 0 0)
(49.9065 0 0)
(49.9096 0 0)
(49.9128 0 0)
(49.916 0 0)
(49.9193 0 0)
(49.9226 0 0)
(49.926 0 0)
(49.9294 0 0)
(49.9329 0 0)
(49.9364 0 0)
(49.94 0 0)
(49.9436 0 0)
(49.9472 0 0)
(49.9509 0 0)
(49.9546 0 0)
(49.9584 0 0)
(49.9622 0 0)
(49.966 0 0)
(49.9699 0 0)
(49.9738 0 0)
(49.9778 0 0)
(49.9817 0 0)
(49.9857 0 0)
(49.9897 0 0)
(49.9937 0 0)
(49.9977 0 0)
(50.0018 0 0)
(50.0058 0 0)
(50.01 0 0)
(50.016 0 0)
)
;

boundaryField
{
    sides
    {
        type            zeroGradient;
    }
    walls
    {
        type            empty;
    }
}


// ************************************************************************* //
