/*--------------------------------*- C++ -*----------------------------------*\
  =========                 |
  \\      /  F ield         | OpenFOAM: The Open Source CFD Toolbox
   \\    /   O peration     | Website:  https://openfoam.org
    \\  /    A nd           | Version:  13
     \\/     M anipulation  |
\*---------------------------------------------------------------------------*/
FoamFile
{
    format      ascii;
    class       volVectorField;
    location    "0.5";
    object      U;
}
// * * * * * * * * * * * * * * * * * * * * * * * * * * * * * * * * * * * * * //

dimensions      [0 1 -1 0 0 0 0];

internalField   nonuniform List<vector> 
100
(
(-4.76236 0 0)
(-4.59696 0 0)
(-4.50203 0 0)
(-4.39809 0 0)
(-4.29509 0 0)
(-4.19282 0 0)
(-4.09143 0 0)
(-3.99103 0 0)
(-3.89171 0 0)
(-3.79355 0 0)
(-3.6966 0 0)
(-3.60089 0 0)
(-3.50643 0 0)
(-3.41324 0 0)
(-3.32128 0 0)
(-3.23051 0 0)
(-3.14087 0 0)
(-3.05228 0 0)
(-2.96463 0 0)
(-2.87779 0 0)
(-2.79162 0 0)
(-2.70597 0 0)
(-2.62067 0 0)
(-2.53555 0 0)
(-2.45042 0 0)
(-2.36511 0 0)
(-2.27945 0 0)
(-2.19327 0 0)
(-2.10642 0 0)
(-2.01875 0 0)
(-1.93016 0 0)
(-1.84054 0 0)
(-1.74981 0 0)
(-1.65792 0 0)
(-1.56484 0 0)
(-1.47055 0 0)
(-1.37507 0 0)
(-1.27841 0 0)
(-1.18063 0 0)
(-1.08179 0 0)
(-0.981937 0 0)
(-0.881172 0 0)
(-0.779587 0 0)
(-0.677209 0 0)
(-0.573927 0 0)
(-0.471954 0 0)
(-0.361475 0 0)
(-0.269727 0 0)
(-0.146503 0 0)
(-0.0651242 0 0)
(0.0648552 0 0)
(0.146223 0 0)
(0.269471 0 0)
(0.36119 0 0)
(0.471696 0 0)
(0.573654 0 0)
(0.676944 0 0)
(0.779324 0 0)
(0.880911 0 0)
(0.981679 0 0)
(1.08153 0 0)
(1.18038 0 0)
(1.27816 0 0)
(1.37482 0 0)
(1.47031 0 0)
(1.5646 0 0)
(1.65768 0 0)
(1.74957 0 0)
(1.8403 0 0)
(1.92992 0 0)
(2.01851 0 0)
(2.10617 0 0)
(2.19302 0 0)
(2.2792 0 0)
(2.36486 0 0)
(2.45016 0 0)
(2.53528 0 0)
(2.6204 0 0)
(2.70569 0 0)
(2.79133 0 0)
(2.87749 0 0)
(2.96432 0 0)
(3.05196 0 0)
(3.14054 0 0)
(3.23017 0 0)
(3.32092 0 0)
(3.41287 0 0)
(3.50605 0 0)
(3.6005 0 0)
(3.6962 0 0)
(3.79314 0 0)
(3.89129 0 0)
(3.9906 0 0)
(4.09099 0 0)
(4.19237 0 0)
(4.29462 0 0)
(4.39762 0 0)
(4.50155 0 0)
(4.59646 0 0)
(4.76185 0 0)
)
;

boundaryField
{
    sides
    {
        type            zeroGradient;
    }
    walls
    {
        type            empty;
    }
}


// ************************************************************************* //
