/*--------------------------------*- C++ -*----------------------------------*\
  =========                 |
  \\      /  F ield         | OpenFOAM: The Open Source CFD Toolbox
   \\    /   O peration     | Website:  https://openfoam.org
    \\  /    A nd           | Version:  13
     \\/     M anipulation  |
\*---------------------------------------------------------------------------*/
FoamFile
{
    format      ascii;
    class       volScalarField;
    location    "0.007";
    object      p;
}
// * * * * * * * * * * * * * * * * * * * * * * * * * * * * * * * * * * * * * //

dimensions      [1 -1 -2 0 0 0 0];

internalField   nonuniform List<scalar> 
100
(
100000
100000
100000
100000
100000
100000
100000
100000
99999.9
99999.7
99999.3
99997.9
99994.4
99985.6
99963.8
99913.3
99802.3
99584.5
99190.3
98533.3
97530.5
96130
94329.1
92173.2
89736.9
87101.8
84341.2
81514.3
78665.6
75828
73024.9
70273.2
67584.9
64968.4
62429.5
59972.3
57599.3
55312
53111.1
50996.3
48967
47021.7
45158.6
43375.1
41668
40033.3
38467.2
36968.8
35539
34181
32900
31701.6
30598.2
29542.8
29544.5
29550.5
29562.5
29582.4
29612
29652.4
29704.2
29766.6
29837.7
29914.7
29993.8
30071.6
30147
30223
30299.5
30298.9
30295.3
30283.3
30255.9
30241.8
30232.6
30219.4
30197
30162.9
30115.5
30056.9
29971.5
29856.2
29737
29568
29316.4
28968.9
28423.3
27524.3
25922.1
22204.1
13809.3
10595.8
10090.5
10013.8
10002.1
10000.3
10000
10000
10000
10000
)
;

boundaryField
{
    sides
    {
        type            zeroGradient;
    }
    walls
    {
        type            empty;
    }
}


// ************************************************************************* //
