/*--------------------------------*- C++ -*----------------------------------*\
  =========                 |
  \\      /  F ield         | OpenFOAM: The Open Source CFD Toolbox
   \\    /   O peration     | Website:  https://openfoam.org
    \\  /    A nd           | Version:  13
     \\/     M anipulation  |
\*---------------------------------------------------------------------------*/
FoamFile
{
    format      ascii;
    class       surfaceScalarField;
    location    "0.007";
    object      phi;
}
// * * * * * * * * * * * * * * * * * * * * * * * * * * * * * * * * * * * * * //

dimensions      [1 0 -1 0 0 0 0];

internalField   nonuniform List<scalar> 
99
(
1.19295e-07
4.4255e-07
1.56887e-06
5.42678e-06
1.83017e-05
6.00245e-05
0.000191566
0.00059358
0.00178567
0.00520488
0.0146901
0.0400678
0.105468
0.267289
0.650454
1.51151
3.3022
6.62584
12.3525
21.3939
34.4319
51.6462
72.633
96.5639
122.452
149.373
176.567
203.464
229.655
254.859
278.885
301.612
322.969
342.916
361.443
378.556
394.277
408.637
421.677
433.445
443.992
453.374
461.65
468.881
475.128
480.453
484.91
488.545
491.403
493.533
494.991
495.809
496.176
495.873
495.55
495.197
494.816
494.458
494.165
493.997
493.968
494.015
493.986
493.584
492.211
488.554
479.98
463.696
437.532
402.837
364.757
333.618
317.799
311.795
309.388
308.282
307.493
306.782
306.084
305.706
303.36
302.646
302.779
299.502
295.638
291.226
281.212
264.337
231.169
144.063
23.5486
3.99956
0.610274
0.0908499
0.0136517
0.00204223
0.000304768
4.54325e-05
6.68413e-06
)
;

boundaryField
{
    sides
    {
        type            calculated;
        value           nonuniform List<scalar> 2(-4.52402e-08 1.65563e-06);
    }
    walls
    {
        type            empty;
    }
}


// ************************************************************************* //
