/*--------------------------------*- C++ -*----------------------------------*\
  =========                 |
  \\      /  F ield         | OpenFOAM: The Open Source CFD Toolbox
   \\    /   O peration     | Website:  https://openfoam.org
    \\  /    A nd           | Version:  13
     \\/     M anipulation  |
\*---------------------------------------------------------------------------*/
FoamFile
{
    format      ascii;
    class       volScalarField;
    location    "0.007";
    object      T;
}
// * * * * * * * * * * * * * * * * * * * * * * * * * * * * * * * * * * * * * //

dimensions      [0 0 0 1 0 0 0];

internalField   nonuniform List<scalar> 
100
(
348.432
348.432
348.432
348.432
348.432
348.432
348.432
348.432
348.432
348.432
348.431
348.43
348.426
348.418
348.396
348.345
348.235
348.017
347.622
346.962
345.948
344.521
342.665
340.411
337.82
334.961
331.9
328.691
325.376
321.987
318.551
315.084
311.603
308.118
304.64
301.176
297.734
294.319
290.936
287.589
284.283
281.02
277.802
274.63
271.502
268.415
265.369
262.368
259.42
256.549
253.747
251.143
248.387
247.309
247.37
247.477
247.635
247.818
248.03
248.256
248.473
248.698
248.987
249.465
250.39
252.273
256.066
263.357
276.291
296.827
325.61
357.75
381.302
392.802
397.742
399.789
400.518
400.676
400.612
400.254
399.38
398.091
396.865
395.723
394.466
392.907
390.513
386.555
379.672
363.418
311.558
283.577
279.471
278.856
278.762
278.748
278.746
278.746
278.746
278.746
)
;

boundaryField
{
    sides
    {
        type            zeroGradient;
    }
    walls
    {
        type            empty;
    }
}


// ************************************************************************* //
