/*--------------------------------*- C++ -*----------------------------------*\
  =========                 |
  \\      /  F ield         | OpenFOAM: The Open Source CFD Toolbox
   \\    /   O peration     | Website:  https://openfoam.org
    \\  /    A nd           | Version:  13
     \\/     M anipulation  |
\*---------------------------------------------------------------------------*/
FoamFile
{
    format      ascii;
    class       volVectorField;
    location    "0.007";
    object      U;
}
// * * * * * * * * * * * * * * * * * * * * * * * * * * * * * * * * * * * * * //

dimensions      [0 1 -1 0 0 0 0];

internalField   nonuniform List<vector> 
100
(
(1.14094e-08 0 0)
(5.06099e-08 0 0)
(1.80386e-07 0 0)
(6.37314e-07 0 0)
(2.18724e-06 0 0)
(7.3271e-06 0 0)
(2.38322e-05 0 0)
(7.54842e-05 0 0)
(0.000231794 0 0)
(0.000691311 0 0)
(0.00199513 0 0)
(0.00557523 0 0)
(0.0150363 0 0)
(0.0391081 0 0)
(0.0977243 0 0)
(0.233754 0 0)
(0.526304 0 0)
(1.1003 0 0)
(2.13786 0 0)
(3.87004 0 0)
(6.52926 0 0)
(10.2882 0 0)
(15.2074 0 0)
(21.2302 0 0)
(28.2136 0 0)
(35.9823 0 0)
(44.3646 0 0)
(53.2167 0 0)
(62.4222 0 0)
(71.8944 0 0)
(81.5649 0 0)
(91.3832 0 0)
(101.308 0 0)
(111.309 0 0)
(121.358 0 0)
(131.434 0 0)
(141.518 0 0)
(151.595 0 0)
(161.649 0 0)
(171.669 0 0)
(181.646 0 0)
(191.571 0 0)
(201.44 0 0)
(211.253 0 0)
(221.016 0 0)
(230.739 0 0)
(240.425 0 0)
(250.059 0 0)
(259.61 0 0)
(269.026 0 0)
(278.237 0 0)
(287.133 0 0)
(295.824 0 0)
(300.25 0 0)
(300.426 0 0)
(300.583 0 0)
(300.693 0 0)
(300.721 0 0)
(300.627 0 0)
(300.376 0 0)
(299.947 0 0)
(299.341 0 0)
(298.582 0 0)
(297.722 0 0)
(296.841 0 0)
(296.048 0 0)
(295.493 0 0)
(295.424 0 0)
(295.749 0 0)
(295.894 0 0)
(295.545 0 0)
(294.753 0 0)
(293.688 0 0)
(292.642 0 0)
(291.807 0 0)
(291.205 0 0)
(290.754 0 0)
(290.327 0 0)
(289.809 0 0)
(289.113 0 0)
(288.17 0 0)
(286.917 0 0)
(285.261 0 0)
(283.001 0 0)
(279.827 0 0)
(275.236 0 0)
(268.272 0 0)
(256.924 0 0)
(235.435 0 0)
(184.369 0 0)
(86.7722 0 0)
(15.4061 0 0)
(2.30595 0 0)
(0.34029 0 0)
(0.0511558 0 0)
(0.0076533 0 0)
(0.00114236 0 0)
(0.000170306 0 0)
(2.54081e-05 0 0)
(3.35505e-06 0 0)
)
;

boundaryField
{
    sides
    {
        type            zeroGradient;
    }
    walls
    {
        type            empty;
    }
}


// ************************************************************************* //
